MOL
2652
    1SOL     OW    1   2.482   2.582   0.043 -0.1550 -0.1079  0.4557
    1SOL    HW1    2   2.565   2.571  -0.003 -0.3543  0.5573 -0.0720
    1SOL    HW2    3   2.484   2.515   0.111 -1.0901 -3.2217 -2.2877
    2SOL     OW    4   2.153   1.560   1.467 -0.3602  0.3276 -0.0544
    2SOL    HW1    5   2.069   1.514   1.471  0.1787 -0.6652  0.0903
    2SOL    HW2    6   2.134   1.647   1.503 -1.0098 -0.3882  1.4129
    3SOL     OW    7   0.545   1.253   1.749 -0.2382 -0.1170 -0.3762
    3SOL    HW1    8   0.481   1.304   1.700  0.7870 -0.3803 -2.0459
    3SOL    HW2    9   0.629   1.274   1.708  0.6666 -0.3746  1.2602
    4SOL     OW   10   2.483   1.752   2.090  0.3855 -0.7859 -0.5198
    4SOL    HW1   11   2.392   1.737   2.115  0.2811 -0.3107 -0.5856
    4SOL    HW2   12   2.520   1.665   2.077  0.7098 -1.1236  2.1448
    5SOL     OW   13   0.407   2.834   0.020  0.5087  0.8831  0.1180
    5SOL    HW1   14   0.488   2.785   0.029  0.1256  0.5369  2.2764
    5SOL    HW2   15   0.431   2.924   0.042  0.1854  0.6005  1.8488
    6SOL     OW   16   0.603   2.930   2.305 -0.2668  0.0946  0.8012
    6SOL    HW1   17   0.562   2.954   2.221  0.3030 -2.3081 -0.2545
    6SOL    HW2   18   0.536   2.951   2.371 -1.6853 -0.1782 -0.4837
    7SOL     OW   19   1.798   2.796   0.083 -0.1336 -0.3064  0.3950
    7SOL    HW1   20   1.848   2.729   0.038 -0.7216 -0.8010  0.4643
    7SOL    HW2   21   1.820   2.784   0.176  2.2672  1.6853  0.1984
    8SOL     OW   22   0.143   0.962   1.975 -0.0926  0.2525 -0.1056
    8SOL    HW1   23   0.187   1.033   1.929  0.9175 -0.4964 -0.3397
    8SOL    HW2   24   0.065   0.944   1.922 -0.2702  1.0780 -0.1277
    9SOL     OW   25   0.342   0.981   2.491 -0.3651  0.1186 -0.2682
    9SOL    HW1   26   0.397   0.915   2.532  0.4949  1.3584  0.6451
    9SOL    HW2   27   0.257   0.939   2.481 -0.2032 -0.6892  1.4834
   10SOL     OW   28   2.705   0.627   2.201 -0.2653  0.5545 -0.3442
   10SOL    HW1   29   2.688   0.622   2.107  1.4978  0.4868 -0.6954
   10SOL    HW2   30   2.730   0.538   2.225 -1.7459  0.3147  0.4454
   11SOL     OW   31   2.283   2.256   0.335 -0.1022  0.0743 -0.0744
   11SOL    HW1   32   2.229   2.271   0.257 -0.7290 -0.1165  0.3210
   11SOL    HW2   33   2.247   2.177   0.375  0.8444 -0.4038 -0.1208
   12SOL     OW   34   2.763   1.409   0.994  0.0701 -0.0363 -0.3374
   12SOL    HW1   35   2.675   1.414   0.956 -0.0755  1.3530  0.1546
   12SOL    HW2   36   2.748   1.399   1.088  0.4463 -0.9663 -0.3633
   13SOL     OW   37   0.767   2.634   0.580 -0.0315  0.2363  0.0298
   13SOL    HW1   38   0.839   2.573   0.566 -0.3838 -0.5529  1.4186
   13SOL    HW2   39   0.805   2.721   0.566  0.8429 -0.2308 -0.5418
   14SOL     OW   40   2.667   2.296   2.963 -0.0287 -0.6316 -0.3521
   14SOL    HW1   41   2.686   2.221   2.906  0.5365 -1.1819  0.5403
   14SOL    HW2   42   2.584   2.273   3.005 -0.6219 -0.0700 -1.1988
   15SOL     OW   43   2.142   2.270   0.696 -0.4568  0.1240  0.0357
   15SOL    HW1   44   2.232   2.269   0.731 -0.7060  1.5995  0.8455
   15SOL    HW2   45   2.114   2.179   0.697  1.3712 -0.4970 -1.1623
   16SOL     OW   46   2.348   2.523   1.123  1.0669  0.2622 -0.3612
   16SOL    HW1   47   2.339   2.618   1.115  0.5100  0.2119 -0.3885
   16SOL    HW2   48   2.349   2.508   1.218  0.4918  0.2446 -0.3518
   17SOL     OW   49   0.869   1.952   1.005  0.3851 -0.5197 -1.0758
   17SOL    HW1   50   0.948   1.898   1.016  1.2944  0.9599 -0.0380
   17SOL    HW2   51   0.797   1.889   1.003  1.4080 -1.7826  0.0622
   18SOL     OW   52   0.765   2.427   2.451 -0.8170 -0.4182 -0.8394
   18SOL    HW1   53   0.719   2.433   2.535 -1.6605 -1.6654 -1.1938
   18SOL    HW2   54   0.719   2.489   2.394 -0.8406 -0.2648 -0.6559
   19SOL     OW   55   2.087   2.250   0.111  0.5040 -0.3817 -0.1685
   19SOL    HW1   56   2.138   2.279   0.035  1.5880  1.7537  1.2911
   19SOL    HW2   57   1.996   2.263   0.084  0.8838  0.8572 -0.9619
   20SOL     OW   58   0.894   0.078   0.421 -0.2920 -0.5411 -0.0572
   20SOL    HW1   59   0.977   0.075   0.375  1.0187 -1.3375  2.2298
   20SOL    HW2   60   0.893   0.163   0.465 -0.0317 -1.0679  1.0073
   21SOL     OW   61   0.855   0.302   2.253 -0.0311 -0.4590  0.3125
   21SOL    HW1   62   0.879   0.390   2.225 -0.4379 -0.4208  0.0815
   21SOL    HW2   63   0.932   0.270   2.302  0.7472 -0.5795 -0.9508
   22SOL     OW   64   0.582   0.623   1.110 -0.0068 -0.5928  0.0660
   22SOL    HW1   65   0.594   0.718   1.113 -0.6274 -0.4403 -1.3170
   22SOL    HW2   66   0.488   0.610   1.119  0.2362 -1.2535  2.4374
   23SOL     OW   67   1.571   2.720   2.742 -0.4941  0.2379 -0.4766
   23SOL    HW1   68   1.579   2.773   2.821  2.3144  0.7959 -1.0237
   23SOL    HW2   69   1.613   2.637   2.765 -0.8944 -0.1060 -0.9683
   24SOL     OW   70   2.706   0.908   1.824  0.5000 -0.0488 -0.0533
   24SOL    HW1   71   2.656   0.988   1.839 -1.0795 -1.0867  0.4246
   24SOL    HW2   72   2.783   0.937   1.774  0.5522  1.9098  1.0707
   25SOL     OW   73   0.651   1.241   0.497  0.1313 -0.0347  0.0162
   25SOL    HW1   74   0.584   1.279   0.439 -0.1004 -1.2194 -0.5162
   25SOL    HW2   75   0.606   1.168   0.541  0.8123 -0.2524  0.3622
   26SOL     OW   76   1.213   1.710   1.158 -0.3147  0.3504 -0.3275
   26SOL    HW1   77   1.303   1.678   1.148  0.4199  1.9378  0.7688
   26SOL    HW2   78   1.190   1.690   1.249 -1.1052 -0.0908 -0.6123
   27SOL     OW   79   2.226   1.840   2.405  0.0908 -0.0084 -0.5842
   27SOL    HW1   80   2.160   1.779   2.374  0.2392 -0.2221 -0.4806
   27SOL    HW2   81   2.209   1.848   2.499 -0.0919  0.3113 -0.6420
   28SOL     OW   82   1.692   1.346   0.045  0.4177 -0.2077  0.5243
   28SOL    HW1   83   1.744   1.342  -0.036  1.6603  1.1384  1.2162
   28SOL    HW2   84   1.757   1.356   0.114 -0.7075 -0.0161  1.5757
   29SOL     OW   85   2.183   2.042   0.431 -0.1744  0.3047 -0.5441
   29SOL    HW1   86   2.254   1.979   0.449  0.8500  1.8593  1.2534
   29SOL    HW2   87   2.116   2.022   0.497 -1.0643 -0.5903 -1.6831
   30SOL     OW   88   1.028   2.782   0.263 -0.0127 -0.0549 -0.0902
   30SOL    HW1   89   1.065   2.763   0.349 -1.6697  1.3520  1.0084
   30SOL    HW2   90   1.104   2.798   0.207  1.1064 -1.1406  1.0334
   31SOL     OW   91   1.295   0.298   2.548 -0.3149  0.3195 -0.1998
   31SOL    HW1   92   1.389   0.278   2.545 -0.5629 -0.9842  0.2654
   31SOL    HW2   93   1.265   0.283   2.458 -0.0826  0.7154 -0.3445
   32SOL     OW   94   0.315   0.682   1.162 -0.1724  0.4750  0.2440
   32SOL    HW1   95   0.240   0.671   1.104  1.2089  2.6375 -2.1396
   32SOL    HW2   96   0.310   0.774   1.190  0.2666 -0.0118  2.0694
   33SOL     OW   97   1.013   2.475   0.644 -0.0876 -0.4735 -0.8778
   33SOL    HW1   98   1.059   2.428   0.574  1.5135  1.9648 -1.5759
   33SOL    HW2   99   1.076   2.479   0.716 -1.6028 -2.6592  0.7364
   34SOL     OW  100   0.173   0.020   2.762  0.0730  0.5724 -0.3170
   34SOL    HW1  101   0.194  -0.072   2.743 -0.4862  0.1453  1.0356
   34SOL    HW2  102   0.257   0.060   2.785  0.0385 -0.1377  1.1402
   35SOL     OW  103   1.965   2.367   2.365  0.5318  0.1151  0.4949
   35SOL    HW1  104   1.880   2.387   2.326 -1.1599 -1.2367  3.2361
   35SOL    HW2  105   2.004   2.303   2.305 -0.7741  0.0833 -0.3620
   36SOL     OW  106   0.976   2.198   2.404  0.2461 -0.1274 -0.1079
   36SOL    HW1  107   0.890   2.241   2.410 -0.6394 -1.7424 -0.4988
   36SOL    HW2  108   0.957   2.113   2.363  2.1105 -0.3400 -0.6069
   37SOL     OW  109   0.726   0.587   2.331 -0.1846 -0.3842  0.6089
   37SOL    HW1  110   0.631   0.582   2.324 -0.2375  0.4363  0.5725
   37SOL    HW2  111   0.744   0.570   2.424 -0.3990 -0.2050  0.6846
   38SOL     OW  112   0.156   0.933   0.054  0.3089  0.2498 -0.4130
   38SOL    HW1  113   0.238   0.965   0.015 -1.5576  3.5517 -2.1011
   38SOL    HW2  114   0.170   0.940   0.148  3.2071 -3.1018 -0.3918
   39SOL     OW  115   1.306   0.498   0.591  0.0801 -0.1298  0.8322
   39SOL    HW1  116   1.243   0.475   0.659  0.6106  0.6342  1.5941
   39SOL    HW2  117   1.390   0.472   0.627  0.2988 -0.3001  0.2013
   40SOL     OW  118   2.270   0.978   1.467 -0.1646 -0.7532  0.0162
   40SOL    HW1  119   2.240   1.063   1.497 -0.0347 -1.4374  2.2368
   40SOL    HW2  120   2.353   0.963   1.512 -0.1232 -1.9857 -0.4146
   41SOL     OW  121   0.210   1.408   1.828 -0.5838 -0.2120  0.4660
   41SOL    HW1  122   0.183   1.424   1.919  2.0320  1.3736  1.0585
   41SOL    HW2  123   0.153   1.465   1.777  0.4367  1.8844  1.5291
   42SOL     OW  124   2.014   0.518   0.009 -0.4439  0.1322 -0.2532
   42SOL    HW1  125   2.006   0.486   0.099 -0.1641  0.6004 -0.0579
   42SOL    HW2  126   2.094   0.478  -0.024  0.1088  0.9145  0.1164
   43SOL     OW  127   2.855   1.700   2.008  0.4675 -0.3673 -0.3469
   43SOL    HW1  128   2.876   1.650   2.086  1.1595  2.4201  1.3802
   43SOL    HW2  129   2.769   1.668   1.981  1.1392 -2.8487  0.2351
   44SOL     OW  130   0.230   2.784   1.303  0.2736  0.0400  0.4971
   44SOL    HW1  131   0.177   2.758   1.228  0.6596  1.1544 -0.1920
   44SOL    HW2  132   0.267   2.702   1.336 -1.2574 -0.6556  0.5379
   45SOL     OW  133   2.818   1.061   0.996 -0.2561  0.3278  0.0910
   45SOL    HW1  134   2.846   1.108   0.918 -0.7950  1.1583  0.3773
   45SOL    HW2  135   2.739   1.013   0.969  0.0426 -0.0687 -0.0872
   46SOL     OW  136   0.479   0.281   0.588 -0.2564 -0.4347 -0.1005
   46SOL    HW1  137   0.454   0.369   0.556 -0.8493 -0.8651 -0.8755
   46SOL    HW2  138   0.498   0.294   0.681  0.3425  0.6456 -0.3489
   47SOL     OW  139   2.080   2.693   1.561  0.1119 -0.9207 -0.0904
   47SOL    HW1  140   2.115   2.609   1.531 -1.5784 -1.2821 -1.2114
   47SOL    HW2  141   2.009   2.713   1.499 -1.7982 -0.3719  2.1370
   48SOL     OW  142   0.881   1.080   1.595  0.6023 -0.2101  0.2432
   48SOL    HW1  143   0.859   1.160   1.642 -1.9702 -0.1848 -0.8237
   48SOL    HW2  144   0.802   1.060   1.545  1.5155 -2.8838 -0.2730
   49SOL     OW  145   0.235   2.470   0.925  0.1290 -0.4053  0.2887
   49SOL    HW1  146   0.294   2.518   0.982 -0.2412 -0.5509  0.8015
   49SOL    HW2  147   0.177   2.422   0.984 -0.3465 -0.4574 -0.2035
   50SOL     OW  148   0.252   2.220   1.677 -0.5441  0.2299 -0.1547
   50SOL    HW1  149   0.208   2.135   1.674  1.6160 -0.9348 -1.7375
   50SOL    HW2  150   0.201   2.275   1.617 -0.6875 -0.6508 -0.8677
   51SOL     OW  151   1.172   0.044   2.194 -0.2124  0.0843 -0.3278
   51SOL    HW1  152   1.231   0.005   2.258  0.9405 -0.1033 -1.4757
   51SOL    HW2  153   1.084   0.024   2.227  0.3598 -1.3329  0.4006
   52SOL     OW  154   0.548   2.423   0.744 -0.0990 -0.6175 -0.3503
   52SOL    HW1  155   0.637   2.393   0.724 -0.0915 -0.7359 -0.1449
   52SOL    HW2  156   0.520   2.366   0.816  0.3228  0.5906  0.8049
   53SOL     OW  157   0.549   2.492   0.484  0.0270 -0.0808 -0.2139
   53SOL    HW1  158   0.500   2.490   0.566  0.1849  1.3459 -0.0594
   53SOL    HW2  159   0.626   2.545   0.503  1.3019 -1.6617 -0.6599
   54SOL     OW  160   0.216   1.384   2.296 -0.3570  0.3793  0.4938
   54SOL    HW1  161   0.202   1.295   2.264  1.6309  0.5001 -0.9551
   54SOL    HW2  162   0.291   1.376   2.355 -0.2221  1.0596  0.4194
   55SOL     OW  163   1.706   0.906   1.499  0.1496 -0.6572  0.2357
   55SOL    HW1  164   1.787   0.943   1.533  1.5239 -2.2265 -1.1092
   55SOL    HW2  165   1.682   0.839   1.563 -0.0117 -0.2898  0.5624
   56SOL     OW  166   1.611   2.154   1.790  0.2052 -0.6558  0.2487
   56SOL    HW1  167   1.575   2.157   1.701 -0.3904  1.2211  0.5069
   56SOL    HW2  168   1.538   2.122   1.844  0.2722 -0.8922  0.2017
   57SOL     OW  169   1.545   1.255   1.096  0.0095 -0.2216 -0.3468
   57SOL    HW1  170   1.456   1.236   1.125  0.2008  0.4821  0.7744
   57SOL    HW2  171   1.554   1.350   1.109  1.3460 -0.4845  0.8337
   58SOL     OW  172   2.435   0.559   1.454  0.2946 -0.1307 -0.4709
   58SOL    HW1  173   2.345   0.549   1.487  1.0692 -0.9484  1.5952
   58SOL    HW2  174   2.470   0.633   1.504  1.3539 -1.0737  0.2291
   59SOL     OW  175   1.202   2.056   0.223 -0.8413  0.2817  0.0820
   59SOL    HW1  176   1.253   2.043   0.143 -2.0068 -0.0730 -0.6148
   59SOL    HW2  177   1.162   2.142   0.211  0.4360  1.0633  1.1227
   60SOL     OW  178   0.669   1.550   1.537  0.0516 -0.4321  0.1075
   60SOL    HW1  179   0.706   1.570   1.451 -0.2784 -0.0796  0.0418
   60SOL    HW2  180   0.676   1.632   1.586 -0.1714 -0.5054  0.2643
   61SOL     OW  181   1.337   2.491   0.250 -0.0150  0.2274  0.0637
   61SOL    HW1  182   1.422   2.451   0.229 -0.1129 -0.6074  1.1478
   61SOL    HW2  183   1.359   2.581   0.277  0.2997  0.6626 -1.5619
   62SOL     OW  184   2.531   1.415   2.853  0.0494 -0.5657  0.0714
   62SOL    HW1  185   2.507   1.346   2.914  1.1975  0.5850  1.9155
   62SOL    HW2  186   2.592   1.373   2.792  0.5862 -1.2435  1.0491
   63SOL     OW  187   0.186   1.033   0.731 -0.3845  0.1043 -0.1157
   63SOL    HW1  188   0.250   1.057   0.665  0.1150 -0.0833  0.2990
   63SOL    HW2  189   0.232   1.040   0.815 -0.7393 -0.5621  0.1500
   64SOL     OW  190   0.142   0.815   2.398  0.1174 -0.1750 -0.5036
   64SOL    HW1  191   0.185   0.753   2.339  1.5741  0.6963 -0.4113
   64SOL    HW2  192   0.071   0.765   2.437  2.2076 -2.3646  0.8203
   65SOL     OW  193   1.417   2.619   1.432 -0.1956 -0.2853  0.0096
   65SOL    HW1  194   1.336   2.658   1.466  0.0177  0.1096  0.0671
   65SOL    HW2  195   1.487   2.674   1.468  0.1579 -1.2177  0.7772
   66SOL     OW  196   0.051   0.246   2.630 -0.3301 -0.6748  0.2240
   66SOL    HW1  197   0.089   0.178   2.686 -0.6504 -1.0101  0.0472
   66SOL    HW2  198   0.121   0.310   2.618  0.4681 -1.6797 -0.7484
   67SOL     OW  199   1.625   2.212   0.366 -0.2235  0.3325  0.5081
   67SOL    HW1  200   1.604   2.119   0.359 -0.1969  0.3335  0.4107
   67SOL    HW2  201   1.627   2.243   0.275  0.2453  0.3248  0.5135
   68SOL     OW  202   2.784   2.065   0.881  0.1185  0.9231  0.3405
   68SOL    HW1  203   2.755   2.153   0.903  0.5820  0.9528  0.8650
   68SOL    HW2  204   2.710   2.026   0.835 -0.1822  1.5001  0.3322
   69SOL     OW  205   1.317   1.341   0.167 -0.7320 -0.2464 -0.5428
   69SOL    HW1  206   1.245   1.345   0.229 -1.8274  0.3297 -1.7908
   69SOL    HW2  207   1.395   1.366   0.217 -1.6574  0.6618  0.4767
   70SOL     OW  208   1.056   1.433   0.165  0.1183 -0.0937  0.1235
   70SOL    HW1  209   0.986   1.382   0.206  0.4300  0.0671  0.8763
   70SOL    HW2  210   1.015   1.471   0.087 -1.0530  1.0831  1.2365
   71SOL     OW  211   1.693   1.190   1.349  0.1739  0.4388 -0.0974
   71SOL    HW1  212   1.659   1.158   1.265  0.0046  1.7518 -0.5486
   71SOL    HW2  213   1.621   1.177   1.410 -0.2456  0.8625 -0.4916
   72SOL     OW  214   1.189   0.479   1.083 -0.4691 -0.3154  0.1931
   72SOL    HW1  215   1.255   0.525   1.031  0.0723 -1.2880  0.0013
   72SOL    HW2  216   1.238   0.446   1.159 -0.8983 -0.4027  0.4324
   73SOL     OW  217   1.694   0.084   1.686  0.2344 -0.2643 -0.0846
   73SOL    HW1  218   1.604   0.063   1.660  0.5230 -0.6764 -0.7782
   73SOL    HW2  219   1.725   0.005   1.730 -0.1911  0.3675  1.3882
   74SOL     OW  220   1.583   1.106   0.173  0.0666 -0.2593  0.4872
   74SOL    HW1  221   1.618   1.187   0.134  2.7063 -2.2962 -1.7965
   74SOL    HW2  222   1.527   1.069   0.104 -0.2099 -0.9260  1.0609
   75SOL     OW  223   0.928   0.838   2.308  0.3785  0.3749 -0.1834
   75SOL    HW1  224   0.945   0.744   2.308  1.5585  0.5762  0.1964
   75SOL    HW2  225   0.860   0.851   2.374 -1.4364 -0.4504 -1.7611
   76SOL     OW  226   1.275   0.699   0.173  0.1394  0.1191 -0.2135
   76SOL    HW1  227   1.299   0.608   0.186  0.1709 -0.1710 -2.0777
   76SOL    HW2  228   1.353   0.748   0.201  0.0052 -0.3699  1.1076
   77SOL     OW  229   2.527   1.611   2.512  0.3276 -0.1883  0.0962
   77SOL    HW1  230   2.599   1.674   2.523 -0.2546  0.1779  2.2425
   77SOL    HW2  231   2.571   1.528   2.496  1.1147  0.6124 -2.5742
   78SOL     OW  232   2.231   0.793   1.959  0.5020 -0.0375  0.5355
   78SOL    HW1  233   2.314   0.745   1.966  0.4552 -0.1066  0.6118
   78SOL    HW2  234   2.250   0.864   1.898  0.5979 -0.0969  0.4956
   79SOL     OW  235   0.298   2.541   2.486  0.2328 -0.1668  0.2187
   79SOL    HW1  236   0.319   2.583   2.403 -0.3836  1.8525  1.0175
   79SOL    HW2  237   0.210   2.507   2.475 -0.8680  2.2993  0.7601
   80SOL     OW  238   0.338   1.379   1.171 -0.7377  0.0033  0.3724
   80SOL    HW1  239   0.356   1.471   1.191  0.9277 -0.2611  0.1674
   80SOL    HW2  240   0.242   1.373   1.173 -1.0472  2.3476 -2.2795
   81SOL     OW  241   2.331   2.484   0.495 -0.1158  0.2588 -0.2368
   81SOL    HW1  242   2.346   2.558   0.435 -0.1480 -0.0332 -0.6096
   81SOL    HW2  243   2.314   2.410   0.437 -1.0339  0.1585  0.1485
   82SOL     OW  244   0.325   0.255   2.864  0.5229 -0.0747  0.0608
   82SOL    HW1  245   0.340   0.210   2.947  0.9441 -0.6541 -0.3187
   82SOL    HW2  246   0.324   0.348   2.887 -0.4895 -0.2656  0.8825
   83SOL     OW  247   1.822   1.439   0.892  0.2562 -0.4858  0.2023
   83SOL    HW1  248   1.742   1.471   0.850  0.0540 -0.2096  0.7858
   83SOL    HW2  249   1.835   1.351   0.855 -0.4596 -0.6349  0.2940
   84SOL     OW  250   2.474   2.869   2.964 -0.5587  0.0698 -0.2447
   84SOL    HW1  251   2.397   2.821   2.994 -1.3055  0.6152 -1.2524
   84SOL    HW2  252   2.518   2.810   2.903  1.6437 -1.5493  2.6453
   85SOL     OW  253   0.353   0.491   0.103 -0.1880  0.2114 -0.3929
   85SOL    HW1  254   0.421   0.542   0.148  0.3832 -0.6950 -0.2130
   85SOL    HW2  255   0.271   0.521   0.142  0.0592  1.5626 -0.8449
   86SOL     OW  256   0.850   1.140   0.146  0.5048 -0.3330 -0.0255
   86SOL    HW1  257   0.924   1.084   0.169  1.7075  0.8721 -0.8540
   86SOL    HW2  258   0.852   1.210   0.212  0.9229  0.4233 -0.8356
   87SOL     OW  259   1.062   1.331   0.623  0.0698  0.0363 -0.0221
   87SOL    HW1  260   1.064   1.298   0.534  0.2583 -0.7572  0.2672
   87SOL    HW2  261   1.125   1.278   0.670  0.4286  0.8594  0.4513
   88SOL     OW  262   1.435   0.585   0.930  0.5550  0.2266  0.2379
   88SOL    HW1  263   1.454   0.514   0.870  1.7724  0.1069  0.7479
   88SOL    HW2  264   1.509   0.587   0.990 -0.5913  0.3811  1.7112
   89SOL     OW  265   1.711   2.499   2.834 -0.9225 -0.1573 -0.1600
   89SOL    HW1  266   1.695   2.417   2.789 -2.2453  0.1194 -0.2392
   89SOL    HW2  267   1.799   2.491   2.870 -0.4807 -1.0254 -1.3996
   90SOL     OW  268   0.607   0.091   2.650 -0.3464 -0.3739  0.3132
   90SOL    HW1  269   0.600   0.090   2.745 -1.4605 -1.5777  0.2586
   90SOL    HW2  270   0.525   0.050   2.620 -0.0790  0.1052 -1.1627
   91SOL     OW  271   2.025   1.923   2.861 -0.0795  0.4018 -0.7082
   91SOL    HW1  272   1.960   1.933   2.931 -0.5350  2.0676 -1.3104
   91SOL    HW2  273   2.109   1.926   2.906 -0.3903 -0.5459 -0.0395
   92SOL     OW  274   2.170   0.051   1.601  0.4113  0.4833 -0.1237
   92SOL    HW1  275   2.261   0.072   1.580  1.0785 -1.9961 -0.1340
   92SOL    HW2  276   2.174  -0.040   1.632 -1.8982  0.7336  1.1527
   93SOL     OW  277   2.594   0.752   1.574  0.2429 -0.5878 -0.1517
   93SOL    HW1  278   2.649   0.798   1.638 -1.6710  0.8015  0.5767
   93SOL    HW2  279   2.632   0.776   1.489  1.5184 -0.7245  0.3472
   94SOL     OW  280   0.595   2.056   0.808  0.3264  0.2575 -0.3112
   94SOL    HW1  281   0.599   2.011   0.723 -0.3966 -1.0372  0.3045
   94SOL    HW2  282   0.618   1.988   0.872  1.7178  1.4216  0.4990
   95SOL     OW  283   1.331   1.827   1.922  0.3270 -0.7265  0.4733
   95SOL    HW1  284   1.342   1.921   1.912  2.3386 -1.0811 -1.7980
   95SOL    HW2  285   1.297   1.798   1.837  1.0069 -2.1649  0.6632
   96SOL     OW  286   0.872   2.391   1.322  0.3777  0.2412 -0.1896
   96SOL    HW1  287   0.918   2.446   1.259 -2.1222  0.6471 -1.7919
   96SOL    HW2  288   0.875   2.304   1.284  0.4975  0.1175  0.1033
   97SOL     OW  289   0.088   0.011   0.220  0.0834  0.0266 -0.1289
   97SOL    HW1  290   0.024   0.082   0.208  1.1745  1.3069  1.2417
   97SOL    HW2  291   0.055  -0.039   0.295  0.9070  0.9963  0.9096
   98SOL     OW  292   2.039   0.948   0.003  0.0966  0.5959 -0.3849
   98SOL    HW1  293   2.035   0.895   0.082  2.2015 -1.1220 -1.2932
   98SOL    HW2  294   2.017   1.037   0.031  1.5396  0.2036  2.2810
   99SOL     OW  295   0.436   0.105   0.918 -0.9364  0.3551  0.0620
   99SOL    HW1  296   0.434   0.021   0.962  1.0052 -0.6874 -1.6746
   99SOL    HW2  297   0.346   0.118   0.887 -0.8072 -2.2790 -1.6876
  100SOL     OW  298   0.386   1.018   2.856  0.2157 -0.6991  0.4129
  100SOL    HW1  299   0.430   0.950   2.804 -0.4196 -1.0982  0.3801
  100SOL    HW2  300   0.429   1.099   2.831  1.0957 -1.1085  0.5656
  101SOL     OW  301   0.354   0.471   0.443  0.2916 -0.0847  0.3891
  101SOL    HW1  302   0.278   0.510   0.401  1.8811  2.2016 -0.5747
  101SOL    HW2  303   0.429   0.518   0.407  2.2388 -2.4600  1.0213
  102SOL     OW  304   2.898   0.740   1.988 -0.1413 -0.6072  0.7650
  102SOL    HW1  305   2.944   0.684   1.926  0.0160  0.7302 -0.3750
  102SOL    HW2  306   2.806   0.738   1.959  0.1771  1.2502 -0.5460
  103SOL     OW  307   1.636   2.461   0.786 -0.0484 -0.8288  0.6660
  103SOL    HW1  308   1.657   2.372   0.759 -1.9235 -1.3088  0.6665
  103SOL    HW2  309   1.580   2.451   0.863 -1.0249  0.2901  0.1366
  104SOL     OW  310   2.591   2.389   1.552 -0.0342  0.0919  0.1779
  104SOL    HW1  311   2.536   2.433   1.616  0.4866 -1.2642  1.6119
  104SOL    HW2  312   2.663   2.451   1.535 -0.2699  0.5304  0.7687
  105SOL     OW  313   2.884   0.105   0.840 -0.2833  0.2045  0.5029
  105SOL    HW1  314   2.839   0.112   0.924 -1.5448  0.4157 -0.1807
  105SOL    HW2  315   2.896   0.196   0.811  0.2037  0.1350  0.4669
  106SOL     OW  316   2.459   1.561   1.509 -0.4196  0.3580  0.0174
  106SOL    HW1  317   2.429   1.649   1.532 -1.1689 -0.3467  1.9135
  106SOL    HW2  318   2.385   1.521   1.465 -0.7065  0.1155  0.7054
  107SOL     OW  319   2.667   1.431   1.236 -0.0031  0.1843 -0.8065
  107SOL    HW1  320   2.636   1.517   1.265  0.2006 -0.3280  1.1130
  107SOL    HW2  321   2.624   1.369   1.295  0.8394 -0.9209 -1.3128
  108SOL     OW  322   2.895   2.118   2.067  0.1646 -0.2672  0.3434
  108SOL    HW1  323   2.897   2.166   2.149 -1.3852 -1.3961  1.0991
  108SOL    HW2  324   2.867   2.030   2.091 -0.2403 -0.6548 -1.3816
  109SOL     OW  325   2.195   1.769   0.195 -0.0343  0.8009  0.0003
  109SOL    HW1  326   2.281   1.730   0.208  0.0276  1.2159  0.9167
  109SOL    HW2  327   2.144   1.702   0.150  0.4695  0.1773  0.3513
  110SOL     OW  328   1.507   0.734   0.679 -0.0498  0.2485  0.2171
  110SOL    HW1  329   1.440   0.706   0.617  0.1920  0.3328 -0.0894
  110SOL    HW2  330   1.470   0.715   0.765 -1.4276  2.3938  0.1629
  111SOL     OW  331   2.114   0.639   1.758  0.4726  0.2940  0.1736
  111SOL    HW1  332   2.135   0.706   1.823  0.0154  0.9585 -0.3378
  111SOL    HW2  333   2.102   0.559   1.808  0.1355  0.7891  0.8981
  112SOL     OW  334   1.416   2.923   2.914 -0.4322 -0.0690  0.6987
  112SOL    HW1  335   1.445   2.984   2.982 -0.9168 -0.2608  1.0822
  112SOL    HW2  336   1.402   2.978   2.837  1.3924 -0.0344  0.3491
  113SOL     OW  337   1.740   1.762   1.254  0.0968 -0.3843  0.5709
  113SOL    HW1  338   1.730   1.682   1.202 -1.4517 -0.5059  1.0040
  113SOL    HW2  339   1.786   1.734   1.333  2.9076 -0.1112 -0.8425
  114SOL     OW  340   0.124   0.197   1.082 -0.2403  0.0384  0.2039
  114SOL    HW1  341   0.129   0.118   1.029 -0.6932  1.1944 -1.6307
  114SOL    HW2  342   0.031   0.208   1.100 -0.0204 -0.9827  2.3530
  115SOL     OW  343   2.006   1.255   1.186 -0.0997  0.5394 -0.0747
  115SOL    HW1  344   1.965   1.236   1.101  1.6943  0.1839 -0.9262
  115SOL    HW2  345   2.088   1.300   1.163 -0.0510  1.3222  1.5316
  116SOL     OW  346   0.398   1.756   2.632 -0.3525 -0.0293  1.0295
  116SOL    HW1  347   0.429   1.792   2.715 -1.4410  1.5906  0.7779
  116SOL    HW2  348   0.476   1.752   2.576  0.0509  0.5825  1.5420
  117SOL     OW  349   2.433   2.769   0.378 -0.0550 -0.2265  0.0673
  117SOL    HW1  350   2.411   2.756   0.471 -0.0548 -1.3056 -0.0704
  117SOL    HW2  351   2.522   2.804   0.380  0.0593 -0.5243  0.4716
  118SOL     OW  352   0.879   2.956   2.584 -0.1057 -0.0582 -0.0188
  118SOL    HW1  353   0.791   2.985   2.606 -0.0297 -1.4811  2.4421
  118SOL    HW2  354   0.870   2.862   2.568  0.9101 -0.1515 -0.0806
  119SOL     OW  355   0.235   1.346   2.695 -0.7373  0.1865 -0.2390
  119SOL    HW1  356   0.321   1.311   2.720 -1.2296 -0.4273  0.6083
  119SOL    HW2  357   0.172   1.285   2.733 -1.6145  1.7416  0.9196
  120SOL     OW  358   0.223   1.921   1.331 -0.2031  0.2377 -0.2796
  120SOL    HW1  359   0.144   1.974   1.333 -0.5490 -0.1672 -1.8693
  120SOL    HW2  360   0.288   1.971   1.381 -0.8837  1.5302 -0.6659
  121SOL     OW  361   1.814   0.327   1.744 -0.6198  0.0015 -0.1262
  121SOL    HW1  362   1.817   0.365   1.657  0.2125  0.9192  0.2857
  121SOL    HW2  363   1.767   0.244   1.733 -1.1987  0.4681 -1.2943
  122SOL     OW  364   2.852   2.537   0.768  1.2016 -0.3573 -0.0895
  122SOL    HW1  365   2.860   2.533   0.673  1.7964 -2.4458 -0.0000
  122SOL    HW2  366   2.894   2.619   0.792  2.0635 -0.3344 -1.5333
  123SOL     OW  367   2.633   1.783   0.766 -0.3377 -0.4780  0.6736
  123SOL    HW1  368   2.664   1.762   0.854  0.8265  1.2271  0.7034
  123SOL    HW2  369   2.673   1.717   0.710  2.0150  0.6308  0.9605
  124SOL     OW  370   0.563   1.128   0.855  0.4926 -0.3557 -0.2849
  124SOL    HW1  371   0.624   1.197   0.882  0.4378  0.5602 -2.2911
  124SOL    HW2  372   0.613   1.047   0.860  1.8341  0.3486 -1.6425
  125SOL     OW  373   1.782   2.252   0.639 -0.5589 -0.3949  0.0293
  125SOL    HW1  374   1.730   2.239   0.560  1.1043  0.0778 -1.1814
  125SOL    HW2  375   1.823   2.167   0.655 -0.5796 -0.3811  0.1582
  126SOL     OW  376   2.830   1.655   2.759  0.0761 -0.2934 -0.4472
  126SOL    HW1  377   2.835   1.725   2.824 -1.4166 -0.2479 -0.3372
  126SOL    HW2  378   2.806   1.699   2.678 -1.5258 -0.6845 -0.2420
  127SOL     OW  379   1.519   1.459   0.324 -0.0894  0.6054  0.6459
  127SOL    HW1  380   1.545   1.526   0.262 -0.8077 -0.4619 -0.8563
  127SOL    HW2  381   1.602   1.416   0.349  0.1093  0.2898 -0.4891
  128SOL     OW  382   1.802   0.716   2.857 -0.0138  0.9274  0.0133
  128SOL    HW1  383   1.732   0.736   2.919  0.0475 -0.3764  0.5159
  128SOL    HW2  384   1.870   0.674   2.909  1.1405  2.1017 -0.4844
  129SOL     OW  385   2.928   0.783   1.557  0.0223  0.1767 -0.1590
  129SOL    HW1  386   2.944   0.740   1.641  1.8621  1.3343  0.1431
  129SOL    HW2  387   2.989   0.857   1.556 -3.2417  3.1293 -0.4729
  130SOL     OW  388   1.477   1.038   2.894  0.1731  0.4474 -0.5117
  130SOL    HW1  389   1.410   1.024   2.826 -0.6228  1.6670 -0.0250
  130SOL    HW2  390   1.526   1.114   2.863  1.1648 -0.2639 -0.7158
  131SOL     OW  391   0.129   1.803   1.605  0.3732 -0.0291  0.1109
  131SOL    HW1  392   0.096   1.723   1.646  1.4216  0.4636  2.0497
  131SOL    HW2  393   0.208   1.776   1.559  1.6152  0.0862  2.0688
  132SOL     OW  394   0.779   0.812   2.730 -0.5126  0.1026  0.2852
  132SOL    HW1  395   0.773   0.869   2.653 -0.6538  1.5232  1.3108
  132SOL    HW2  396   0.828   0.863   2.794  0.0691 -1.2686  0.9712
  133SOL     OW  397   0.527   2.874   1.284  0.5195 -0.5655 -0.2567
  133SOL    HW1  398   0.584   2.923   1.225  0.2289  0.1896  0.0779
  133SOL    HW2  399   0.439   2.905   1.263  0.4186 -0.2023  0.6345
  134SOL     OW  400   2.836   1.361   0.338 -0.0525  0.1945  0.6974
  134SOL    HW1  401   2.751   1.370   0.381 -0.0744 -3.4810  1.7221
  134SOL    HW2  402   2.827   1.410   0.256 -1.6164  3.4370  2.6147
  135SOL     OW  403   1.607   1.032   1.854  0.2288 -0.0409  0.2446
  135SOL    HW1  404   1.560   0.959   1.895 -0.0444  1.1743  2.2247
  135SOL    HW2  405   1.617   1.097   1.924  2.4257  0.9169 -0.8525
  136SOL     OW  406   0.282   2.710   2.706  0.7050  0.3634 -0.4433
  136SOL    HW1  407   0.257   2.654   2.633  1.2832  0.0252 -0.3866
  136SOL    HW2  408   0.305   2.649   2.776 -1.1282  0.6630  0.4949
  137SOL     OW  409   0.719   0.903   1.833 -0.0455  0.1656 -0.1069
  137SOL    HW1  410   0.790   0.898   1.769  0.1231  0.7692  0.0240
  137SOL    HW2  411   0.673   0.819   1.825  0.5657 -0.1534 -0.3269
  138SOL     OW  412   2.557   2.933   2.489  0.2730 -0.3155  0.1756
  138SOL    HW1  413   2.632   2.904   2.541  0.2031 -0.8810 -0.0220
  138SOL    HW2  414   2.484   2.937   2.551  0.4090 -0.0343  0.3139
  139SOL     OW  415   1.623   0.413   1.160  0.3953 -0.1066  0.3913
  139SOL    HW1  416   1.712   0.427   1.192  0.1223  1.4789  0.5423
  139SOL    HW2  417   1.575   0.490   1.189 -0.2113  0.7590 -2.5721
  140SOL     OW  418   2.897   2.299   1.640  0.1447  0.1255  0.5651
  140SOL    HW1  419   2.881   2.229   1.703  0.6477  0.8866  1.5636
  140SOL    HW2  420   2.815   2.307   1.591  0.7905 -2.7671 -1.2608
  141SOL     OW  421   1.883   0.433   1.211  0.5484 -0.1848  0.0039
  141SOL    HW1  422   1.917   0.508   1.259  0.2234 -0.7768  1.1966
  141SOL    HW2  423   1.960   0.393   1.169  0.5829  1.4104 -1.5602
  142SOL     OW  424   2.174   1.321   2.838 -0.0968 -0.0917 -0.4185
  142SOL    HW1  425   2.231   1.387   2.800 -1.0977  0.1838 -1.5296
  142SOL    HW2  426   2.213   1.237   2.811  1.8074 -0.0564  1.9394
  143SOL     OW  427   0.709   0.636   0.875  0.0796  0.2290  0.4484
  143SOL    HW1  428   0.638   0.615   0.935 -0.0663 -0.6129 -0.0174
  143SOL    HW2  429   0.702   0.573   0.804  1.1237  0.3026  0.2528
  144SOL     OW  430   0.165   1.603   2.724  0.6197 -0.3485  0.3448
  144SOL    HW1  431   0.236   1.639   2.671  1.5809 -0.5249  1.4782
  144SOL    HW2  432   0.190   1.512   2.739  0.9639 -0.0048  2.0480
  145SOL     OW  433   2.145   0.992   1.079 -0.2429  0.2032  0.0472
  145SOL    HW1  434   2.173   1.083   1.070 -2.3589  1.0536  1.3593
  145SOL    HW2  435   2.085   0.978   1.005  1.0102 -0.5443 -0.8543
  146SOL     OW  436   0.464   1.934   0.301  0.0779  0.4825 -0.2454
  146SOL    HW1  437   0.398   1.895   0.244 -3.6252  0.1317  3.7777
  146SOL    HW2  438   0.446   2.028   0.299  0.7748  0.6177 -0.5610
  147SOL     OW  439   2.483   0.635   2.356  0.1106 -0.0870  0.2235
  147SOL    HW1  440   2.506   0.623   2.263 -2.8045 -0.2031 -0.5853
  147SOL    HW2  441   2.449   0.724   2.361 -1.6423 -0.7338  0.6684
  148SOL     OW  442   0.878   2.946   2.254 -0.6421  0.3465  0.3385
  148SOL    HW1  443   0.788   2.922   2.277 -0.4677  0.2642  0.9501
  148SOL    HW2  444   0.893   3.029   2.298 -0.9010  1.1099 -0.9625
  149SOL     OW  445   1.272   1.871   2.777  0.5265  0.8768 -0.4373
  149SOL    HW1  446   1.242   1.899   2.690  1.3914  0.1704 -0.9821
  149SOL    HW2  447   1.194   1.874   2.832 -1.0503 -2.5546 -2.1973
  150SOL     OW  448   1.947   1.393   1.854 -0.2301  0.6949 -0.8017
  150SOL    HW1  449   1.872   1.343   1.822 -1.3366  0.5211  1.8121
  150SOL    HW2  450   1.980   1.342   1.928  0.8773  2.0352 -0.3254
  151SOL     OW  451   1.759   0.664   0.350 -0.0444  0.4661  0.4453
  151SOL    HW1  452   1.822   0.715   0.298 -0.2583 -0.1416 -0.4337
  151SOL    HW2  453   1.674   0.706   0.332  0.0791  1.2537  1.5889
  152SOL     OW  454   1.189   2.389   0.044 -0.5934 -0.1395  0.2447
  152SOL    HW1  455   1.181   2.471  -0.004 -2.4760  0.3741  1.3697
  152SOL    HW2  456   1.230   2.413   0.127  0.8337 -0.7147 -0.2598
  153SOL     OW  457   1.122   1.032   1.325  0.3312  0.3635 -0.2841
  153SOL    HW1  458   1.136   0.939   1.342 -1.4062 -0.0257 -0.8578
  153SOL    HW2  459   1.132   1.074   1.410 -2.6178 -0.8485  0.7863
  154SOL     OW  460   1.174   1.652   0.340 -0.6948 -0.0271 -0.3856
  154SOL    HW1  461   1.143   1.588   0.276  1.4814  1.0693 -2.6846
  154SOL    HW2  462   1.119   1.729   0.326 -0.0006  0.3305 -1.2386
  155SOL     OW  463   1.146   0.128   0.326 -0.0610  0.3849 -0.1918
  155SOL    HW1  464   1.196   0.104   0.248  0.6868  0.5243  0.2403
  155SOL    HW2  465   1.172   0.218   0.345  1.4905 -0.3560  1.5136
  156SOL     OW  466   0.614   0.261   2.403 -0.6065  0.0207  0.7002
  156SOL    HW1  467   0.703   0.273   2.370 -0.5886 -2.0601 -0.1521
  156SOL    HW2  468   0.623   0.194   2.471 -1.5359 -0.2082  0.6017
  157SOL     OW  469   1.969   0.443   2.367 -0.5483 -0.6712 -0.3680
  157SOL    HW1  470   2.064   0.457   2.372 -0.8261  2.4743 -1.8846
  157SOL    HW2  471   1.942   0.431   2.458  0.9480  1.5472  0.4450
  158SOL     OW  472   2.266   1.404   2.100  0.0267 -0.2799  0.3197
  158SOL    HW1  473   2.255   1.419   2.194 -1.0919 -1.2776  0.3732
  158SOL    HW2  474   2.239   1.313   2.087 -3.4223  0.7964 -1.4486
  159SOL     OW  475   1.279   1.193   1.200 -0.1093  0.0571  0.0884
  159SOL    HW1  476   1.255   1.111   1.242  1.0792  0.0054  0.7067
  159SOL    HW2  477   1.203   1.250   1.213  0.1452 -0.0061  2.1996
  160SOL     OW  478   0.728   2.054   0.387 -0.7580 -0.5517  0.0151
  160SOL    HW1  479   0.736   2.040   0.293  1.6908  2.9306 -0.5047
  160SOL    HW2  480   0.644   2.100   0.397 -1.2405 -1.3259 -0.3739
  161SOL     OW  481   0.914   2.609   2.667 -0.3127  0.0278 -0.2683
  161SOL    HW1  482   0.917   2.514   2.656 -0.8661  0.2805 -4.3201
  161SOL    HW2  483   0.828   2.634   2.634 -0.4363  1.9331  1.3627
  162SOL     OW  484   1.477   0.407   2.020  0.3874 -0.2085  0.0053
  162SOL    HW1  485   1.487   0.314   2.001 -0.5042 -0.0876 -1.2298
  162SOL    HW2  486   1.552   0.429   2.075  0.6051 -1.6522  0.3186
  163SOL     OW  487   0.277   2.870   0.580 -0.0368 -0.0213 -0.5866
  163SOL    HW1  488   0.309   2.802   0.639 -0.6765 -0.6098 -0.9112
  163SOL    HW2  489   0.356   2.907   0.540  0.4068  0.3993  0.6427
  164SOL     OW  490   0.702   0.298   0.043  0.0599  0.3722  0.1408
  164SOL    HW1  491   0.726   0.333  -0.043 -0.2622 -0.4726 -0.3107
  164SOL    HW2  492   0.769   0.332   0.102  1.6283 -0.8308 -0.8377
  165SOL     OW  493   2.249   0.205   2.403 -0.5176 -0.0653  0.0538
  165SOL    HW1  494   2.240   0.199   2.308 -0.1363 -2.2511  0.0925
  165SOL    HW2  495   2.274   0.296   2.419 -2.9406  1.0270 -1.6845
  166SOL     OW  496   1.467   1.643   0.575  0.0110 -0.3086 -0.4450
  166SOL    HW1  497   1.482   1.606   0.488 -1.5964 -0.4363 -0.6968
  166SOL    HW2  498   1.388   1.696   0.565  1.3864  2.0218  0.2648
  167SOL     OW  499   2.756   2.154   1.834 -0.1310 -0.2063 -0.5105
  167SOL    HW1  500   2.799   2.120   1.912 -1.4398  0.2632  0.4448
  167SOL    HW2  501   2.714   2.235   1.862 -1.6985 -0.6717 -1.3379
  168SOL     OW  502   1.494   2.389   1.563  0.3096 -0.2641 -0.4865
  168SOL    HW1  503   1.460   2.454   1.502 -2.3502  0.8762  1.9549
  168SOL    HW2  504   1.583   2.418   1.582 -0.0140  1.3129 -1.2197
  169SOL     OW  505   2.912   2.898   2.890  0.4539 -0.7030  0.2993
  169SOL    HW1  506   2.964   2.833   2.936  0.7068 -0.3929  0.4555
  169SOL    HW2  507   2.976   2.957   2.850  0.2356  0.1864  1.2146
  170SOL     OW  508   1.705   0.279   2.834 -0.0136  0.4557  0.0929
  170SOL    HW1  509   1.772   0.289   2.766  0.1052 -0.6434  0.0264
  170SOL    HW2  510   1.696   0.184   2.845 -1.8280  0.5535 -0.1760
  171SOL     OW  511   0.884   0.380   0.219  0.3047 -0.0777 -0.2158
  171SOL    HW1  512   0.967   0.342   0.192 -0.7987 -2.0240 -1.1011
  171SOL    HW2  513   0.869   0.343   0.306 -0.5628 -1.4414 -0.9014
  172SOL     OW  514   0.854   0.909   0.405 -0.9574  0.4477 -0.4801
  172SOL    HW1  515   0.924   0.905   0.340 -0.4521 -2.8011  0.1022
  172SOL    HW2  516   0.899   0.918   0.489 -1.2875 -0.3240 -0.2109
  173SOL     OW  517   0.945   2.522   0.200  0.0476  0.7882  0.4515
  173SOL    HW1  518   0.950   2.590   0.267  1.3468  0.4683  0.7032
  173SOL    HW2  519   0.965   2.567   0.118  0.2640  0.8391  0.5313
  174SOL     OW  520   1.289   0.574   2.454  0.7317 -0.0419 -0.6803
  174SOL    HW1  521   1.196   0.597   2.455  0.9739  0.9870 -0.3275
  174SOL    HW2  522   1.291   0.479   2.447 -0.3579  0.0474 -4.1652
  175SOL     OW  523   2.757   0.090   0.459 -0.3459  0.0612 -0.6221
  175SOL    HW1  524   2.709   0.111   0.539  0.2897  1.7214 -0.6451
  175SOL    HW2  525   2.826   0.029   0.487  0.2025  1.0393  0.2082
  176SOL     OW  526   0.375   1.646   1.210  0.0353  0.3609  0.0933
  176SOL    HW1  527   0.455   1.654   1.158 -0.9641  0.0648 -1.5590
  176SOL    HW2  528   0.331   1.730   1.200  0.1416  0.5509  1.0643
  177SOL     OW  529   0.747   0.935   2.503  0.3993  0.0154  0.2945
  177SOL    HW1  530   0.759   1.020   2.544  0.0442  0.2529 -0.0826
  177SOL    HW2  531   0.681   0.950   2.435 -0.4556 -0.7721  0.9082
  178SOL     OW  532   2.662   2.725   1.218  0.1837 -0.2188 -0.1094
  178SOL    HW1  533   2.619   2.811   1.220  0.9283  0.1573 -0.1407
  178SOL    HW2  534   2.622   2.681   1.142 -0.1596  0.1151 -0.1296
  179SOL     OW  535   1.137   0.666   0.768  1.1097 -0.0381  0.1419
  179SOL    HW1  536   1.212   0.695   0.821  1.4908  1.0012 -0.9156
  179SOL    HW2  537   1.061   0.707   0.810  1.5675  2.0445 -0.9299
  180SOL     OW  538   2.152   0.307   2.136  0.2673 -0.1262 -0.5080
  180SOL    HW1  539   2.089   0.378   2.150  1.0163  0.3212  0.7414
  180SOL    HW2  540   2.154   0.295   2.041  0.4640  1.8348 -0.7838
  181SOL     OW  541   2.191   1.245   1.448 -0.2301  0.1127  0.1167
  181SOL    HW1  542   2.175   1.308   1.378  1.0011 -0.7903 -1.0331
  181SOL    HW2  543   2.109   1.195   1.455 -0.1478 -0.2583 -1.2101
  182SOL     OW  544   0.131   2.423   0.254 -0.1485  0.1318 -0.8455
  182SOL    HW1  545   0.219   2.460   0.251  0.2352 -0.6245  0.3242
  182SOL    HW2  546   0.096   2.436   0.166  1.4833 -0.3651 -1.6075
  183SOL     OW  547   0.398   0.024   2.128 -0.3533  0.0979 -0.2429
  183SOL    HW1  548   0.395  -0.063   2.087  1.8173 -0.9498  1.6061
  183SOL    HW2  549   0.308   0.039   2.158 -0.7308 -1.6152 -0.4062
  184SOL     OW  550   2.963   1.194   2.724  0.0049  0.3927 -0.0812
  184SOL    HW1  551   2.972   1.104   2.755  2.9633  0.0701 -1.4862
  184SOL    HW2  552   2.939   1.185   2.632 -1.1207  1.1070  0.1273
  185SOL     OW  553   0.431   2.341   1.959 -0.0202  0.1584  0.9760
  185SOL    HW1  554   0.343   2.377   1.948  0.2475  0.6664  0.4372
  185SOL    HW2  555   0.441   2.278   1.887  0.6955  1.4120 -0.0752
  186SOL     OW  556   1.770   0.465   2.136  0.2782  0.4904  0.1455
  186SOL    HW1  557   1.851   0.498   2.174  0.5244 -0.1774  0.2269
  186SOL    HW2  558   1.786   0.371   2.125 -0.5339  0.3303  0.2927
  187SOL     OW  559   2.918   1.090   1.724  0.5258 -0.1542  0.4681
  187SOL    HW1  560   2.907   1.177   1.687  1.3290 -0.0564  0.4501
  187SOL    HW2  561   3.005   1.062   1.697  0.8477 -0.3776  1.6723
  188SOL     OW  562   0.201   0.245   0.488  0.3938 -0.3274 -0.2063
  188SOL    HW1  563   0.261   0.311   0.455 -0.6451  0.3873 -0.7343
  188SOL    HW2  564   0.234   0.223   0.575  0.2078  1.6264  0.4065
  189SOL     OW  565   2.515   2.381   0.210 -0.4608  0.1387  0.2752
  189SOL    HW1  566   2.604   2.368   0.243 -0.2653 -1.3370 -0.7552
  189SOL    HW2  567   2.459   2.337   0.274 -0.1127 -2.3615 -1.0324
  190SOL     OW  568   1.620   1.716   0.252  0.0206 -0.4344 -0.0131
  190SOL    HW1  569   1.692   1.685   0.307 -1.4511  0.1428  2.3399
  190SOL    HW2  570   1.660   1.727   0.165  2.9175  0.4583  1.3085
  191SOL     OW  571   2.838   2.839   2.623  0.3683 -0.0646 -0.1501
  191SOL    HW1  572   2.855   2.864   2.714  0.8143 -0.1522 -0.2067
  191SOL    HW2  573   2.914   2.872   2.574  0.4930 -0.6649 -0.3749
  192SOL     OW  574   1.257   2.346   1.298 -0.3090  0.4249  0.1215
  192SOL    HW1  575   1.222   2.290   1.228  0.9940  1.4649 -1.4383
  192SOL    HW2  576   1.201   2.327   1.373 -1.0015 -1.6655 -0.8233
  193SOL     OW  577   0.494   1.392   2.012 -0.3198  0.7616 -0.3322
  193SOL    HW1  578   0.558   1.322   2.022  0.1692  1.0704 -1.1511
  193SOL    HW2  579   0.419   1.350   1.970  0.0471  0.7504 -1.0031
  194SOL     OW  580   1.002   0.192   0.057 -0.2860  0.7649  0.2941
  194SOL    HW1  581   0.931   0.128   0.060 -0.6562  1.1415 -0.3978
  194SOL    HW2  582   1.044   0.177  -0.028  1.3194 -0.3660  1.2264
  195SOL     OW  583   0.930   2.842   1.799  0.1537  0.2626  0.7596
  195SOL    HW1  584   0.914   2.909   1.866  0.3173 -0.3564  1.4403
  195SOL    HW2  585   0.930   2.760   1.848 -1.2279 -0.3561 -0.2268
  196SOL     OW  586   1.797   2.314   2.599  0.1172 -0.5484 -0.3706
  196SOL    HW1  587   1.847   2.309   2.517 -0.3727  2.4075 -0.9960
  196SOL    HW2  588   1.706   2.309   2.571 -0.0330 -0.2844  0.0612
  197SOL     OW  589   0.163   0.582   0.285  0.0255  0.4658  0.1096
  197SOL    HW1  590   0.167   0.675   0.259  2.1528  0.3312 -0.2634
  197SOL    HW2  591   0.077   0.553   0.256 -0.8203  2.3857  0.4930
  198SOL     OW  592   2.353   0.944   0.842 -0.0877  0.3445  0.2650
  198SOL    HW1  593   2.350   0.849   0.841  0.6945  0.3008  0.8809
  198SOL    HW2  594   2.276   0.971   0.892  0.6830 -0.0431  1.7113
  199SOL     OW  595   2.624   1.176   0.615 -0.2089 -0.4625 -0.2070
  199SOL    HW1  596   2.702   1.162   0.669  0.7737 -0.0473 -1.4723
  199SOL    HW2  597   2.645   1.136   0.531 -1.2146  0.0088 -0.7072
  200SOL     OW  598   1.627   2.783   0.457 -0.3171 -0.0367  0.4399
  200SOL    HW1  599   1.610   2.840   0.532 -0.1567 -0.2717  0.6525
  200SOL    HW2  600   1.700   2.826   0.411 -0.7352  0.3742  0.1378
  201SOL     OW  601   0.185   1.531   0.821 -0.1207 -0.0295  0.3656
  201SOL    HW1  602   0.149   1.558   0.905  1.0618  0.9883  0.5756
  201SOL    HW2  603   0.266   1.484   0.844 -0.3786 -0.7554 -0.1640
  202SOL     OW  604   0.066   2.413   1.129  0.6535  0.2906  0.8931
  202SOL    HW1  605   0.038   2.504   1.139  1.7485  0.6601  0.7919
  202SOL    HW2  606  -0.013   2.361   1.141 -0.1418  1.3017  0.1111
  203SOL     OW  607   1.182   2.025   2.540 -0.0382 -0.5594 -0.2763
  203SOL    HW1  608   1.180   1.973   2.459 -0.9815  0.7935 -1.1806
  203SOL    HW2  609   1.133   2.104   2.518  0.7886  0.4238  1.2479
  204SOL     OW  610   0.935   1.806   0.276 -0.2690 -0.3529 -0.6076
  204SOL    HW1  611   0.880   1.882   0.256 -0.4882 -0.8023 -1.8118
  204SOL    HW2  612   0.930   1.797   0.371 -0.4873  0.9474 -0.4748
  205SOL     OW  613   2.381   1.180   0.722 -0.3494 -0.1850 -0.3932
  205SOL    HW1  614   2.463   1.177   0.672 -0.4079  0.3368 -0.5315
  205SOL    HW2  615   2.382   1.100   0.775  0.9973  0.5497  0.7766
  206SOL     OW  616   2.531   1.217   1.393 -0.5108  0.3783 -0.5407
  206SOL    HW1  617   2.440   1.207   1.365 -0.3996 -0.2626 -0.6977
  206SOL    HW2  618   2.580   1.157   1.336  0.1535  1.5074 -1.1959
  207SOL     OW  619   0.818   2.009   0.110  0.2202  0.0264  0.3114
  207SOL    HW1  620   0.889   2.067   0.083 -0.9377  1.0410 -0.6750
  207SOL    HW2  621   0.802   1.953   0.033 -0.2925  0.0680  0.3839
  208SOL     OW  622   0.742   0.488   1.322 -0.2041 -0.4522  0.5232
  208SOL    HW1  623   0.671   0.436   1.359 -1.5702 -0.8844 -2.4322
  208SOL    HW2  624   0.711   0.513   1.235  2.6790  0.6356 -0.3136
  209SOL     OW  625   1.434   1.236   1.753  0.4199  0.3161 -0.3380
  209SOL    HW1  626   1.388   1.272   1.829 -2.0677 -0.3385 -1.4586
  209SOL    HW2  627   1.480   1.159   1.788  0.5047  0.8499  0.7741
  210SOL     OW  628   1.012   0.160   2.434  0.6730 -0.4706  0.2967
  210SOL    HW1  629   1.101   0.165   2.471 -0.0665  2.0228  1.9700
  210SOL    HW2  630   0.963   0.111   2.500  1.0030 -3.1626 -1.3030
  211SOL     OW  631   0.314   1.059   1.007  0.0236  0.1383  0.3937
  211SOL    HW1  632   0.385   1.101   0.959  0.0736 -0.5436 -0.1379
  211SOL    HW2  633   0.327   1.087   1.098  1.0081 -0.0174  0.3118
  212SOL     OW  634   2.528   0.448   0.521  0.5051  0.2009  0.4105
  212SOL    HW1  635   2.497   0.527   0.563  2.2545  0.1875  1.8191
  212SOL    HW2  636   2.621   0.464   0.505  0.6625 -1.1865 -0.2080
  213SOL     OW  637   2.352   1.238   1.104  0.4914  0.6833  0.3394
  213SOL    HW1  638   2.437   1.204   1.133 -1.3524 -3.1720  1.9773
  213SOL    HW2  639   2.333   1.310   1.163  0.8377 -1.2255  2.9467
  214SOL     OW  640   2.459   2.787   1.458  0.0122 -0.0437  0.4932
  214SOL    HW1  641   2.438   2.863   1.404 -0.0346 -0.2684  0.1918
  214SOL    HW2  642   2.440   2.815   1.547 -1.9763 -0.3502  0.2245
  215SOL     OW  643   0.470   1.388   1.522 -0.4307  0.2049 -0.0107
  215SOL    HW1  644   0.541   1.450   1.535  1.4703 -1.7811 -0.4049
  215SOL    HW2  645   0.426   1.418   1.442  1.3274  0.2899 -0.9893
  216SOL     OW  646   0.628   2.563   1.301 -0.6599 -0.2607 -0.5143
  216SOL    HW1  647   0.672   2.568   1.386 -0.8713  0.5529 -0.4462
  216SOL    HW2  648   0.695   2.592   1.238 -0.2588 -1.5979 -0.7226
  217SOL     OW  649   1.584   1.542   2.018 -0.9249 -0.3717 -0.0628
  217SOL    HW1  650   1.590   1.592   1.937  3.6969  1.3618  1.0450
  217SOL    HW2  651   1.603   1.452   1.993 -0.9848 -0.1192 -1.0588
  218SOL     OW  652   1.525   1.946   2.310  0.1287  0.1479  0.6272
  218SOL    HW1  653   1.604   1.976   2.355 -0.3970  1.6468  0.6070
  218SOL    HW2  654   1.526   1.851   2.321  3.0809 -0.1507 -1.2961
  219SOL     OW  655   1.257   0.493   2.777  0.1873 -0.2568 -0.1728
  219SOL    HW1  656   1.259   0.421   2.713  0.0024 -1.2322  0.8906
  219SOL    HW2  657   1.345   0.493   2.814 -0.3085 -1.0857  1.0527
  220SOL     OW  658   0.672   2.735   2.563  0.3587 -0.2656 -0.1737
  220SOL    HW1  659   0.662   2.697   2.475 -0.7033  0.0247 -0.1958
  220SOL    HW2  660   0.590   2.781   2.578  0.7554  0.1588  0.7560
  221SOL     OW  661   0.703   1.707   2.235  0.3473 -0.3378  0.1662
  221SOL    HW1  662   0.748   1.630   2.270  1.0482 -0.0336 -0.0561
  221SOL    HW2  663   0.723   1.706   2.142  2.2405  1.3399  0.4944
  222SOL     OW  664   0.943   0.927   2.020  0.3493  0.0707  0.1088
  222SOL    HW1  665   0.935   0.897   2.111 -2.5433 -0.7123 -0.3296
  222SOL    HW2  666   0.863   0.898   1.978  0.6095  2.3567 -2.1743
  223SOL     OW  667   0.069   0.728   0.544 -0.1147 -0.0959 -0.2472
  223SOL    HW1  668   0.001   0.792   0.565  0.5171  0.5236 -0.0552
  223SOL    HW2  669   0.107   0.759   0.462  2.2886  1.5932  1.3584
  224SOL     OW  670   0.229   2.120   2.962 -0.1236 -0.0256  0.2334
  224SOL    HW1  671   0.191   2.182   3.025 -2.0017 -0.5537 -0.3255
  224SOL    HW2  672   0.323   2.140   2.964 -0.3984  1.4075  1.6151
  225SOL     OW  673   1.171   0.741   2.708 -0.1103 -0.2062 -0.4806
  225SOL    HW1  674   1.244   0.774   2.656 -0.4981 -0.8466 -1.4508
  225SOL    HW2  675   1.193   0.650   2.726  0.3336  0.1727  1.0753
  226SOL     OW  676   2.479   2.595   2.610  0.2040 -0.5973 -0.8044
  226SOL    HW1  677   2.392   2.594   2.648  0.5492 -0.2406  0.0079
  226SOL    HW2  678   2.516   2.680   2.635  1.2232 -1.2167 -0.1138
  227SOL     OW  679   0.023   1.671   1.337  0.6419 -0.0996  0.1967
  227SOL    HW1  680   0.075   1.751   1.345 -1.1655  1.1131  0.4057
  227SOL    HW2  681  -0.060   1.701   1.299  0.0657 -1.9498 -0.0754
  228SOL     OW  682   1.967   0.253   0.492 -0.6184 -0.3464  0.3094
  228SOL    HW1  683   2.042   0.245   0.551 -1.3450  1.4272  1.5378
  228SOL    HW2  684   2.004   0.284   0.409 -0.0819  1.6395  1.2452
  229SOL     OW  685   1.405   1.309   0.866  0.1718  0.1989  0.4303
  229SOL    HW1  686   1.340   1.250   0.827 -0.6458  0.7564  0.9040
  229SOL    HW2  687   1.452   1.254   0.928  1.6242 -0.7540 -1.4095
  230SOL     OW  688   1.821   2.249   2.128 -0.1453  0.5711  0.0862
  230SOL    HW1  689   1.849   2.267   2.039  2.5325  3.4913  1.3192
  230SOL    HW2  690   1.884   2.184   2.161  0.3444  1.2298  0.4870
  231SOL     OW  691   2.651   2.905   0.253  0.4767  0.0997 -0.0237
  231SOL    HW1  692   2.621   2.926   0.165 -0.1885 -0.6814  0.0112
  231SOL    HW2  693   2.665   2.991   0.294 -0.7162  0.4773 -0.3766
  232SOL     OW  694   1.162   1.148   1.560  0.4034 -0.0115 -0.7786
  232SOL    HW1  695   1.178   1.107   1.645  0.8880 -0.0674 -0.8941
  232SOL    HW2  696   1.067   1.157   1.556  0.3973  0.3155 -0.0844
  233SOL     OW  697   0.118   2.335   1.946  0.2228  0.4561 -0.0599
  233SOL    HW1  698   0.127   2.368   1.856  0.5634 -0.6861 -0.4633
  233SOL    HW2  699   0.077   2.249   1.936  1.1417 -0.0974  0.7976
  234SOL     OW  700   1.288   2.941   2.458  0.0592 -0.1636  0.0387
  234SOL    HW1  701   1.370   2.896   2.440 -0.4627 -0.6962 -1.0649
  234SOL    HW2  702   1.234   2.876   2.503 -0.2610 -0.2697 -0.4913
  235SOL     OW  703   2.368   1.844   1.577 -0.1896 -0.1033 -0.6006
  235SOL    HW1  704   2.409   1.821   1.660  0.1555 -0.0800 -0.7656
  235SOL    HW2  705   2.283   1.882   1.603  0.1487  0.4153 -0.2303
  236SOL     OW  706   2.496   2.142   1.523 -0.6310  0.1027 -0.3009
  236SOL    HW1  707   2.535   2.220   1.561 -0.0904  0.7296 -2.0497
  236SOL    HW2  708   2.410   2.135   1.565  0.2860  0.1957  1.6791
  237SOL     OW  709   0.749   0.023   1.151  0.0739 -0.4849  0.4502
  237SOL    HW1  710   0.785  -0.045   1.094  2.7410  1.2455 -0.1551
  237SOL    HW2  711   0.769   0.105   1.105  0.0351  0.8477  2.6835
  238SOL     OW  712   1.741   0.077   2.047  0.4015  0.1319  0.0891
  238SOL    HW1  713   1.719   0.017   2.119 -1.3778  0.2903 -0.2764
  238SOL    HW2  714   1.659   0.087   1.998  1.2150  1.1604 -1.1325
  239SOL     OW  715   0.042   1.255   0.012 -0.2769 -0.0004  0.2420
  239SOL    HW1  716   0.028   1.243  -0.082  1.5571 -0.1897 -0.0358
  239SOL    HW2  717   0.014   1.345   0.029 -0.7433 -0.0073 -0.4495
  240SOL     OW  718   2.087   1.730   2.693 -0.4025  0.8242 -0.0864
  240SOL    HW1  719   2.031   1.726   2.616 -2.4461  2.3181  1.2119
  240SOL    HW2  720   2.057   1.807   2.741 -0.1204 -0.7536  2.8580
  241SOL     OW  721   0.611   1.590   1.037 -0.2545  0.3358  0.0694
  241SOL    HW1  722   0.581   1.606   0.948 -1.2144 -1.3145  0.0449
  241SOL    HW2  723   0.642   1.675   1.068  1.2894  0.7137 -2.2383
  242SOL     OW  724   0.858   2.481   1.864 -0.1056  0.0362 -0.2562
  242SOL    HW1  725   0.836   2.425   1.940 -0.9817  0.2772 -0.3168
  242SOL    HW2  726   0.815   2.438   1.790  0.2084  0.1525 -0.5059
  243SOL     OW  727   1.493   0.613   1.282 -0.3299 -0.3097 -0.5368
  243SOL    HW1  728   1.481   0.707   1.288 -1.6135 -0.4719 -0.3667
  243SOL    HW2  729   1.440   0.577   1.352 -0.1327 -1.1836 -0.8177
  244SOL     OW  730   0.643   2.158   2.843 -0.1179  0.1294 -0.0462
  244SOL    HW1  731   0.571   2.201   2.888 -1.1318  0.6201 -2.0348
  244SOL    HW2  732   0.699   2.126   2.914 -1.9541  0.2476  1.5620
  245SOL     OW  733   0.409   2.717   2.089  0.6103 -0.3269 -0.2604
  245SOL    HW1  734   0.360   2.645   2.050  0.3091 -0.0203 -0.4580
  245SOL    HW2  735   0.474   2.742   2.023 -0.0156  0.3088 -0.6560
  246SOL     OW  736   1.312   0.077   2.698  0.2075  0.3271  0.8490
  246SOL    HW1  737   1.299   0.160   2.652  1.8989  0.2070  0.0935
  246SOL    HW2  738   1.346   0.018   2.631 -1.2837 -1.0999  1.2971
  247SOL     OW  739   2.353   0.135   1.947  0.7468 -0.3364 -0.5076
  247SOL    HW1  740   2.267   0.147   1.987  1.0141 -0.8369  0.2410
  247SOL    HW2  741   2.357   0.042   1.926  1.9785 -0.8306  1.6065
  248SOL     OW  742   1.349   2.496   2.160  0.0713 -1.1394  0.2285
  248SOL    HW1  743   1.363   2.491   2.066  2.4334  0.2783  0.4282
  248SOL    HW2  744   1.365   2.407   2.192  3.6165 -0.8364 -0.3060
  249SOL     OW  745   1.678   1.282   1.630  0.0229  0.1066  0.1661
  249SOL    HW1  746   1.594   1.256   1.669 -0.8577  2.8169  0.2866
  249SOL    HW2  747   1.743   1.256   1.695 -0.9726  0.2146  1.2487
  250SOL     OW  748   0.174   0.966   1.615 -0.5465 -0.2334  0.3518
  250SOL    HW1  749   0.261   0.929   1.628 -0.4091 -0.7861 -1.7528
  250SOL    HW2  750   0.190   1.054   1.581 -0.8604  0.5932  2.2489
  251SOL     OW  751   0.979   0.817   1.730  0.0255 -0.5646  0.2477
  251SOL    HW1  752   0.954   0.868   1.653 -1.9019  0.9209  1.7387
  251SOL    HW2  753   0.959   0.727   1.707 -1.8251  0.0061 -0.5504
  252SOL     OW  754   1.020   0.453   1.429  0.0386  0.4385 -0.0873
  252SOL    HW1  755   1.015   0.391   1.502  0.4330  0.5395  0.0312
  252SOL    HW2  756   1.013   0.399   1.351  1.7665  0.0699 -0.0184
  253SOL     OW  757   1.110   2.465   1.732  0.0377  0.6528 -0.5635
  253SOL    HW1  758   1.105   2.480   1.638 -0.8680 -0.0443 -0.6382
  253SOL    HW2  759   1.024   2.490   1.766 -0.3118 -0.9186 -0.2115
  254SOL     OW  760   2.556   0.208   2.380  0.2317  0.2388 -0.0732
  254SOL    HW1  761   2.534   0.144   2.447  1.7979  0.0084  0.2531
  254SOL    HW2  762   2.568   0.290   2.428  0.1148  0.3583 -0.2455
  255SOL     OW  763   1.536   0.168   1.325 -0.8659  0.6520 -0.7600
  255SOL    HW1  764   1.496   0.189   1.409 -0.7776 -1.3988 -0.1540
  255SOL    HW2  765   1.532   0.250   1.276 -1.0839  1.8626  1.1551
  256SOL     OW  766   2.047   0.317   1.551 -0.2132  0.5915 -0.1848
  256SOL    HW1  767   2.090   0.235   1.573 -0.6498  0.1128 -1.0315
  256SOL    HW2  768   1.957   0.292   1.529 -0.2706  1.2471 -0.7528
  257SOL     OW  769   1.395   0.461   0.214  0.2383  0.9049 -0.6122
  257SOL    HW1  770   1.400   0.419   0.129  0.7092  1.2797 -0.7759
  257SOL    HW2  771   1.481   0.446   0.253 -0.0269  0.5990 -0.1353
  258SOL     OW  772   1.431   2.167   0.812  0.4634 -0.3538  0.1783
  258SOL    HW1  773   1.403   2.216   0.735  0.9217 -1.6887 -0.8928
  258SOL    HW2  774   1.448   2.233   0.878 -1.2564  0.7500 -0.4255
  259SOL     OW  775   1.532   2.200   2.158  0.5440  0.1793  0.2690
  259SOL    HW1  776   1.519   2.130   2.222  0.9047  1.0435  1.3301
  259SOL    HW2  777   1.624   2.192   2.132 -0.1953 -1.7011 -2.0656
  260SOL     OW  778   2.535   0.304   2.096 -0.0505 -0.5349  0.0942
  260SOL    HW1  779   2.470   0.248   2.053 -0.0553 -0.7757  0.4118
  260SOL    HW2  780   2.536   0.274   2.187  0.4883 -0.5113  0.0949
  261SOL     OW  781   2.298   2.067   2.298 -0.0045  0.1142 -0.2994
  261SOL    HW1  782   2.269   1.994   2.354  0.7907  1.5310  2.1102
  261SOL    HW2  783   2.383   2.039   2.265 -0.6874 -0.9408 -1.2118
  262SOL     OW  784   1.262   1.881   0.896 -0.0975 -0.1442 -0.2826
  262SOL    HW1  785   1.229   1.846   0.813  0.2555  0.0993 -0.5294
  262SOL    HW2  786   1.211   1.961   0.911  1.0044  0.7688 -1.1582
  263SOL     OW  787   2.397   0.694   0.942 -0.2796 -0.0695  0.2764
  263SOL    HW1  788   2.457   0.655   1.005 -0.0731  1.4128  1.0415
  263SOL    HW2  789   2.310   0.664   0.970 -0.0785 -0.5166  0.4319
  264SOL     OW  790   2.581   0.058   1.288  0.3753  0.0262 -0.3722
  264SOL    HW1  791   2.508   0.048   1.228  0.9794  0.1101 -1.1368
  264SOL    HW2  792   2.567   0.145   1.327 -0.5467 -0.4289  0.3634
  265SOL     OW  793   1.812   1.426   0.270 -0.3518 -0.2371 -0.2159
  265SOL    HW1  794   1.847   1.373   0.342  0.8409 -0.9137 -1.2541
  265SOL    HW2  795   1.850   1.513   0.283 -1.1615  0.0096  0.6657
  266SOL     OW  796   2.349   0.841   1.181 -0.0635 -0.1232 -0.1971
  266SOL    HW1  797   2.298   0.832   1.101  0.2309  0.4979 -0.4594
  266SOL    HW2  798   2.284   0.850   1.250 -0.3159 -0.2805 -0.4099
  267SOL     OW  799   1.662   1.443   2.415 -0.0023  0.1029  0.4112
  267SOL    HW1  800   1.708   1.469   2.495 -0.8606 -0.7675  1.2104
  267SOL    HW2  801   1.616   1.522   2.387  0.8792  0.6128  0.3584
  268SOL     OW  802   0.695   0.102   1.934  0.0153 -0.5533 -0.9212
  268SOL    HW1  803   0.669   0.194   1.940 -0.8328 -0.8492  0.4563
  268SOL    HW2  804   0.698   0.084   1.840 -1.4564  0.4361 -1.1944
  269SOL     OW  805   0.332   1.587   2.095 -0.3646 -0.4068 -0.4575
  269SOL    HW1  806   0.302   1.549   2.177  0.5155  1.2463  0.6940
  269SOL    HW2  807   0.412   1.539   2.074 -0.1244 -0.2684  0.1275
  270SOL     OW  808   2.032   1.683   2.266 -0.2020  0.2472 -0.2547
  270SOL    HW1  809   1.978   1.604   2.268  0.0915  0.0559  0.5399
  270SOL    HW2  810   2.102   1.663   2.205  1.2983 -1.0907  1.7799
  271SOL     OW  811   2.212   0.656   2.631 -0.1508 -0.0517 -0.5655
  271SOL    HW1  812   2.282   0.711   2.596 -0.0226 -0.5132 -1.0522
  271SOL    HW2  813   2.133   0.709   2.619 -0.0369  0.0033 -1.0930
  272SOL     OW  814   2.912   0.335   0.412 -0.1744  0.4279  0.3394
  272SOL    HW1  815   3.006   0.315   0.421 -0.1059  1.1563  1.3558
  272SOL    HW2  816   2.868   0.254   0.436  0.1934 -0.3062 -1.3130
  273SOL     OW  817   2.752   2.573   1.438 -0.4989  0.0721 -0.0828
  273SOL    HW1  818   2.739   2.626   1.359 -1.1697 -1.8685 -1.3276
  273SOL    HW2  819   2.797   2.632   1.498 -0.4741  1.7999 -1.6922
  274SOL     OW  820   0.948   1.501   1.059 -0.5306  0.1718 -0.7203
  274SOL    HW1  821   0.940   1.595   1.041  2.0163  0.5861 -0.0659
  274SOL    HW2  822   1.030   1.475   1.017 -0.3464 -1.3872  0.4978
  275SOL     OW  823   0.630   2.925   0.752  0.0170  0.3440 -0.2070
  275SOL    HW1  824   0.575   2.910   0.675 -0.0050  1.0906 -0.3417
  275SOL    HW2  825   0.574   2.974   0.812 -0.4623 -1.4509  0.9043
  276SOL     OW  826   1.988   2.421   1.667  0.3731 -0.2883  0.0206
  276SOL    HW1  827   2.030   2.421   1.581  0.4911  0.9430  0.0641
  276SOL    HW2  828   2.059   2.404   1.729  0.2903 -1.1610 -0.1167
  277SOL     OW  829   1.203   0.998   2.814  0.1687 -0.0925 -0.3952
  277SOL    HW1  830   1.270   1.001   2.746  1.7990 -1.7076  1.0403
  277SOL    HW2  831   1.155   0.916   2.796 -0.3147  0.1866 -0.3991
  278SOL     OW  832   2.054   2.048   1.429 -0.1887 -0.2396 -0.1341
  278SOL    HW1  833   2.081   2.138   1.408  0.3578 -0.2344  0.5620
  278SOL    HW2  834   2.021   2.053   1.519 -1.4307 -0.4818 -0.5557
  279SOL     OW  835   1.908   1.619   2.506 -0.2069 -0.4319 -0.5326
  279SOL    HW1  836   1.926   1.629   2.412  0.5589  0.0040 -0.3463
  279SOL    HW2  837   1.931   1.529   2.526  1.5732  0.0290 -0.3594
  280SOL     OW  838   1.016   2.434   1.109  0.3239 -0.8087 -0.2868
  280SOL    HW1  839   0.941   2.439   1.049 -0.5714  0.7215  0.9136
  280SOL    HW2  840   1.066   2.359   1.077 -0.3349 -0.3095 -2.6937
  281SOL     OW  841   1.746   1.456   2.681  0.4359  0.2347 -0.6664
  281SOL    HW1  842   1.763   1.537   2.729 -0.1455  1.8624 -3.0070
  281SOL    HW2  843   1.833   1.420   2.663  0.8401  1.4921 -1.3718
  282SOL     OW  844   2.732   2.897   1.529  0.5337  0.1042 -0.1484
  282SOL    HW1  845   2.699   2.871   1.615  0.9674  1.1240  0.3423
  282SOL    HW2  846   2.653   2.909   1.475  0.2652 -0.6158  0.0749
  283SOL     OW  847   0.247   2.006   2.480  0.1682  0.2234  0.0699
  283SOL    HW1  848   0.312   1.949   2.438 -0.3494 -1.3775  1.3242
  283SOL    HW2  849   0.203   1.949   2.543 -1.2475  1.7302  0.5046
  284SOL     OW  850   2.793   0.530   0.537 -0.2411 -0.1678 -0.2990
  284SOL    HW1  851   2.850   0.604   0.558  0.1741 -0.7568  0.7309
  284SOL    HW2  852   2.840   0.482   0.469 -0.4687  0.4629 -0.9006
  285SOL     OW  853   1.298   1.311   1.987 -0.2614 -0.5894 -0.2797
  285SOL    HW1  854   1.205   1.295   1.970 -0.6306  0.8196  0.2710
  285SOL    HW2  855   1.311   1.285   2.078 -0.0126 -1.1362 -0.4640
  286SOL     OW  856   1.447   2.089   1.094  0.3407  0.2649 -0.0787
  286SOL    HW1  857   1.454   2.040   1.012 -1.1927 -0.8675  0.4275
  286SOL    HW2  858   1.355   2.114   1.098  0.0795 -0.8529  1.9340
  287SOL     OW  859   0.289   0.057   1.653  0.0175 -0.0751  0.1328
  287SOL    HW1  860   0.223   0.108   1.605 -0.2439 -1.6286 -1.2454
  287SOL    HW2  861   0.353   0.123   1.682 -1.3338  1.2796  0.2079
  288SOL     OW  862   2.398   2.188   0.780  0.2376  0.1463  0.1199
  288SOL    HW1  863   2.414   2.167   0.871  0.8382 -2.7997 -0.5715
  288SOL    HW2  864   2.475   2.155   0.733 -0.9020 -0.1711 -1.6387
  289SOL     OW  865   2.863   2.027   2.456 -0.0361  0.5819 -0.2215
  289SOL    HW1  866   2.803   2.093   2.492 -1.4090 -1.0785  0.6533
  289SOL    HW2  867   2.945   2.041   2.503 -1.5299 -1.0219  3.2125
  290SOL     OW  868   1.622   0.925   2.488  0.5060 -0.4986  0.0543
  290SOL    HW1  869   1.714   0.947   2.473  0.4012 -0.1955 -0.1397
  290SOL    HW2  870   1.624   0.833   2.517  0.8361 -0.6106 -0.3169
  291SOL     OW  871   0.986   2.184   2.918 -0.9546 -0.6586  0.2931
  291SOL    HW1  872   0.969   2.236   2.996 -1.5245  1.3288 -1.0912
  291SOL    HW2  873   1.079   2.160   2.924 -0.2452  1.8543  0.2540
  292SOL     OW  874   1.521   0.116   0.135 -0.1120  0.0294 -0.1729
  292SOL    HW1  875   1.612   0.133   0.157  0.1409  1.8716 -2.2430
  292SOL    HW2  876   1.472   0.146   0.212  0.9688 -0.1230  0.5976
  293SOL     OW  877   1.669   0.394   0.310  0.4814  0.0239  0.3532
  293SOL    HW1  878   1.707   0.481   0.322  2.5468 -0.7695 -0.1651
  293SOL    HW2  879   1.733   0.347   0.258 -0.6583 -1.7950  0.5334
  294SOL     OW  880   0.840   2.362   1.599 -0.1852  0.1319  0.0402
  294SOL    HW1  881   0.789   2.442   1.604  0.4569  0.5152  0.7817
  294SOL    HW2  882   0.886   2.366   1.515  0.9130  1.2283  0.6585
  295SOL     OW  883   1.580   1.791   2.540  0.3281 -0.1777 -0.0593
  295SOL    HW1  884   1.669   1.812   2.568 -0.6219  1.8577  1.7132
  295SOL    HW2  885   1.553   1.721   2.600  0.1465  0.4530  0.6118
  296SOL     OW  886   0.154   1.649   0.056 -0.0037 -0.0550 -0.1471
  296SOL    HW1  887   0.188   1.632  -0.031 -1.4809 -2.0092 -0.3999
  296SOL    HW2  888   0.059   1.651   0.045 -0.2145 -0.2404  1.3960
  297SOL     OW  889   0.187   1.226   0.214  0.8466  0.3377  0.1332
  297SOL    HW1  890   0.128   1.201   0.285  0.5453  1.4253  0.2841
  297SOL    HW2  891   0.130   1.243   0.140  0.9201  1.6278  0.3444
  298SOL     OW  892   2.533   0.594   0.135  0.2011  0.0756 -0.0399
  298SOL    HW1  893   2.511   0.543   0.057 -1.5429 -0.3165  0.6631
  298SOL    HW2  894   2.579   0.533   0.192 -0.1701 -0.1579  0.0064
  299SOL     OW  895   1.202   1.438   1.003 -0.0670  0.0354  0.4496
  299SOL    HW1  896   1.241   1.499   1.066  1.1098 -1.1920  0.9646
  299SOL    HW2  897   1.274   1.413   0.945 -0.8575  0.2066 -0.6386
  300SOL     OW  898   0.340   2.452   2.832 -0.1536  0.7821 -0.0830
  300SOL    HW1  899   0.314   2.382   2.773  0.6292  0.1511  0.3040
  300SOL    HW2  900   0.267   2.461   2.893 -0.2890  0.3509 -0.1816
  301SOL     OW  901   0.235   0.886   1.316 -0.3663  0.9131 -0.0767
  301SOL    HW1  902   0.245   0.925   1.403 -0.7260  1.4991 -0.2918
  301SOL    HW2  903   0.172   0.943   1.272 -1.0245 -0.0036 -0.3427
  302SOL     OW  904   0.486   0.446   2.569  0.1024  0.5158 -0.4147
  302SOL    HW1  905   0.576   0.480   2.566  1.1567 -1.8993  0.5887
  302SOL    HW2  906   0.496   0.353   2.545 -1.6167 -0.6082  2.7027
  303SOL     OW  907   2.367   1.443   0.254  0.5533  0.3166  0.1903
  303SOL    HW1  908   2.393   1.430   0.345  0.6696 -0.1174  0.0941
  303SOL    HW2  909   2.392   1.362   0.209 -0.0309  0.2920 -0.1084
  304SOL     OW  910   2.498   0.151   0.064 -0.0233 -0.0562  0.6051
  304SOL    HW1  911   2.578   0.153   0.012  0.7614  0.9026  1.7743
  304SOL    HW2  912   2.465   0.062   0.054  0.4988 -0.0974 -0.9047
  305SOL     OW  913   2.634   2.728   2.775  0.4256 -0.1941 -0.4897
  305SOL    HW1  914   2.688   2.678   2.836  0.7275  1.7716  0.9326
  305SOL    HW2  915   2.695   2.759   2.709  0.5142 -0.3805 -0.4971
  306SOL     OW  916   0.811   0.323   0.514 -1.2661 -0.3385 -0.5310
  306SOL    HW1  917   0.871   0.354   0.582 -0.4598 -2.7647 -0.0115
  306SOL    HW2  918   0.725   0.323   0.557 -1.1213  0.2147 -0.2381
  307SOL     OW  919   1.250   2.830   0.113 -0.0246  0.1624  0.2636
  307SOL    HW1  920   1.311   2.780   0.167 -0.1854 -0.4958 -0.1519
  307SOL    HW2  921   1.304   2.866   0.042 -0.3366 -1.6482 -0.9472
  308SOL     OW  922   0.656   1.307   0.001 -0.0253  0.1196  0.2663
  308SOL    HW1  923   0.712   1.235   0.030 -1.3922 -1.4455 -0.7870
  308SOL    HW2  924   0.574   1.294   0.049 -0.0071  1.5179  0.7105
  309SOL     OW  925   1.573   2.379   0.124 -0.0464 -0.2045  0.1600
  309SOL    HW1  926   1.558   2.361   0.031 -0.7290  0.9955  0.0291
  309SOL    HW2  927   1.644   2.443   0.125 -2.0848  2.1906  0.2728
  310SOL     OW  928   0.856   0.670   1.498  0.0617  0.0012  0.3726
  310SOL    HW1  929   0.816   0.623   1.425 -0.7585 -0.1303  0.8888
  310SOL    HW2  930   0.942   0.630   1.508 -0.2110 -0.6582  0.1190
  311SOL     OW  931   0.706   1.215   2.005 -0.2817  0.4187  0.1898
  311SOL    HW1  932   0.675   1.228   2.094 -1.6937  1.4027 -0.3963
  311SOL    HW2  933   0.668   1.132   1.978 -1.6679  1.1504 -0.1911
  312SOL     OW  934   1.244   2.495   0.780  0.1884  0.0700  0.2721
  312SOL    HW1  935   1.298   2.531   0.709  0.3269  1.6102  1.1167
  312SOL    HW2  936   1.308   2.456   0.840  0.0562 -1.4246 -0.5157
  313SOL     OW  937   2.811   2.079   1.222  0.3863 -0.0951 -0.3698
  313SOL    HW1  938   2.851   2.043   1.143  1.9585  2.3888 -0.8066
  313SOL    HW2  939   2.866   2.046   1.294  0.5609 -0.2156 -0.5586
  314SOL     OW  940   1.773   0.676   2.393  0.2463 -0.1059  0.6538
  314SOL    HW1  941   1.846   0.620   2.418  0.0569 -0.3176  0.7344
  314SOL    HW2  942   1.700   0.646   2.448 -0.2932 -0.8728 -0.4382
  315SOL     OW  943   1.986   1.368   2.603 -0.9418  0.0031  0.3402
  315SOL    HW1  944   1.972   1.289   2.551 -0.3301 -0.4277  0.8365
  315SOL    HW2  945   2.073   1.359   2.640 -1.5670  0.0417  1.9115
  316SOL     OW  946   1.794   1.754   0.670 -0.2782  0.6779  0.0583
  316SOL    HW1  947   1.700   1.755   0.689 -0.1627  0.7147  0.6283
  316SOL    HW2  948   1.836   1.764   0.755  0.2534 -0.4315 -0.0579
  317SOL     OW  949   1.484   0.819   0.367  0.2315  0.0791  0.4328
  317SOL    HW1  950   1.394   0.797   0.391  0.5083 -1.6080  0.0597
  317SOL    HW2  951   1.512   0.882   0.434 -1.3505  1.0085  0.2794
  318SOL     OW  952   0.632   2.521   2.071 -0.3019 -0.3115  0.2545
  318SOL    HW1  953   0.631   2.599   2.016  1.2730 -0.1208  0.4423
  318SOL    HW2  954   0.576   2.459   2.026 -0.0703  0.2849 -0.8865
  319SOL     OW  955   0.369   0.663   1.501 -0.0698  0.0498  0.4096
  319SOL    HW1  956   0.327   0.689   1.419 -0.2404 -2.7124 -0.4627
  319SOL    HW2  957   0.461   0.687   1.489 -0.2630  0.5080 -0.2075
  320SOL     OW  958   0.855   2.917   0.081  0.0091  0.8491  0.4028
  320SOL    HW1  959   0.848   2.837   0.029 -0.8423  0.3504  1.2478
  320SOL    HW2  960   0.898   2.889   0.162 -1.2397  1.0053  1.1473
  321SOL     OW  961   1.258   1.429   1.601 -0.0607 -0.1925 -0.0019
  321SOL    HW1  962   1.232   1.336   1.602  0.4418 -0.3737  2.4192
  321SOL    HW2  963   1.194   1.472   1.657  0.0010  0.8556 -0.7231
  322SOL     OW  964   1.915   1.674   0.322  0.2945 -0.1246  0.0657
  322SOL    HW1  965   1.973   1.690   0.396 -0.3109  0.5293  0.4096
  322SOL    HW2  966   1.967   1.697   0.245  0.4417  0.6469  0.3827
  323SOL     OW  967   1.015   0.309   1.763 -0.0943 -0.1852 -0.4158
  323SOL    HW1  968   1.002   0.270   1.849  0.4506 -0.3253 -0.3903
  323SOL    HW2  969   0.948   0.376   1.757  0.6515  0.6975  0.6491
  324SOL     OW  970   1.774   2.279   1.011 -0.2484  0.0371  0.1142
  324SOL    HW1  971   1.767   2.372   0.989 -1.6674 -0.2529 -0.8674
  324SOL    HW2  972   1.738   2.272   1.099  0.6875  0.5282  0.5433
  325SOL     OW  973   0.229   0.478   1.641  0.3736 -0.7420  0.0613
  325SOL    HW1  974   0.227   0.404   1.581 -1.4626 -0.0078 -0.8717
  325SOL    HW2  975   0.262   0.551   1.588 -2.8338  0.3226 -0.6994
  326SOL     OW  976   2.811   2.741   2.210  0.4475 -0.1140 -0.1251
  326SOL    HW1  977   2.851   2.726   2.295 -0.6562  1.2961  0.6790
  326SOL    HW2  978   2.778   2.655   2.183  1.6372 -0.7641  0.3870
  327SOL     OW  979   1.181   0.156   1.605  0.4299  0.3317 -0.6540
  327SOL    HW1  980   1.113   0.143   1.538 -1.0699  0.7125  0.7206
  327SOL    HW2  981   1.134   0.193   1.679  2.3368  1.4770  0.0499
  328SOL     OW  982   1.507   0.527   2.866  0.5453 -0.3908 -0.1450
  328SOL    HW1  983   1.529   0.604   2.918  1.3050 -0.7431  0.0738
  328SOL    HW2  984   1.579   0.465   2.883 -0.5498 -1.5428  0.4638
  329SOL     OW  985   1.083   1.928   1.229  0.3901  0.0431 -0.1437
  329SOL    HW1  986   1.095   1.888   1.315 -0.3968 -4.0273 -1.6986
  329SOL    HW2  987   1.133   1.872   1.170 -2.3631  0.2055 -2.8581
  330SOL     OW  988   0.779   1.826   2.895 -0.0298 -0.2887 -0.6580
  330SOL    HW1  989   0.832   1.840   2.816  2.1307 -0.6715  0.6340
  330SOL    HW2  990   0.788   1.733   2.914  1.8140  0.2338  1.4931
  331SOL     OW  991   1.762   1.025   0.350  0.0629  0.0420  0.5358
  331SOL    HW1  992   1.703   1.058   0.282  0.5673  0.2767  0.2068
  331SOL    HW2  993   1.705   0.977   0.410 -0.4936  0.4515  0.3411
  332SOL     OW  994   0.494   0.920   2.010  0.2064 -0.0467 -0.5005
  332SOL    HW1  995   0.421   0.859   2.023 -0.4142  0.7200 -0.2658
  332SOL    HW2  996   0.547   0.880   1.941 -0.4499 -0.6073 -0.6968
  333SOL     OW  997   1.986   2.004   2.617  0.0766  0.0028  0.3033
  333SOL    HW1  998   1.981   1.960   2.702 -0.6561 -1.4620 -0.4766
  333SOL    HW2  999   2.062   2.062   2.625 -0.1385  0.0837  2.0393
  334SOL     OW 1000   1.419   2.964   1.728  0.0367 -0.1300  0.3617
  334SOL    HW1 1001   1.353   3.004   1.671 -0.7078 -0.8035  0.7341
  334SOL    HW2 1002   1.375   2.888   1.766  0.2141  0.7757  2.5233
  335SOL     OW 1003   1.739   1.205   2.282  0.3872  0.3954 -0.7186
  335SOL    HW1 1004   1.713   1.284   2.328  0.7001  1.0733 -1.6825
  335SOL    HW2 1005   1.786   1.153   2.348  3.1476  2.4949 -0.8866
  336SOL     OW 1006   0.014   0.596   1.768 -0.7978 -0.6836  0.3784
  336SOL    HW1 1007  -0.076   0.566   1.758 -0.5958 -1.2635  0.2526
  336SOL    HW2 1008   0.062   0.552   1.698 -0.7547  1.1150 -0.7653
  337SOL     OW 1009   2.941   2.321   2.241  0.2819  0.2265 -0.2176
  337SOL    HW1 1010   3.020   2.288   2.285  0.8887  1.1675 -0.5637
  337SOL    HW2 1011   2.975   2.374   2.169 -0.6664  0.9503 -0.1452
  338SOL     OW 1012   2.060   1.508   0.750  0.4093  0.6932 -0.1265
  338SOL    HW1 1013   1.973   1.476   0.774  0.4086 -0.1982 -1.2924
  338SOL    HW2 1014   2.064   1.595   0.790 -1.0860  0.8291 -0.2107
  339SOL     OW 1015   0.569   0.334   0.853  0.3309 -0.1056  0.2953
  339SOL    HW1 1016   0.649   0.329   0.906  0.5586  1.2791  0.1338
  339SOL    HW2 1017   0.524   0.251   0.869  1.1204 -0.3330  1.4833
  340SOL     OW 1018   0.041   1.942   0.951 -0.4551 -0.2170 -0.1201
  340SOL    HW1 1019  -0.035   1.999   0.937 -1.5447 -1.4083  0.6945
  340SOL    HW2 1020   0.116   2.000   0.943 -1.4845  1.1720 -0.1363
  341SOL     OW 1021   0.039   1.056   1.192  0.1054  0.1286  0.1651
  341SOL    HW1 1022  -0.043   1.052   1.142 -0.1014 -2.1543  0.5859
  341SOL    HW2 1023   0.082   1.135   1.160 -2.3562  1.5455  0.1137
  342SOL     OW 1024   1.344   1.745   0.155 -0.2540 -0.4606 -0.0100
  342SOL    HW1 1025   1.435   1.744   0.184  0.1704  2.6621 -0.8321
  342SOL    HW2 1026   1.293   1.717   0.231  1.2541  0.1335  1.2679
  343SOL     OW 1027   2.529   1.674   2.832 -0.2188  0.0752  0.5256
  343SOL    HW1 1028   2.547   1.580   2.826 -0.2757  0.0878  0.1589
  343SOL    HW2 1029   2.495   1.686   2.921  0.4839 -0.1312  0.8286
  344SOL     OW 1030   0.529   1.895   2.809 -0.2813  0.1215  0.3905
  344SOL    HW1 1031   0.551   1.988   2.805 -0.5588  0.1635 -0.3461
  344SOL    HW2 1032   0.608   1.852   2.841  1.0165  0.2483 -2.3520
  345SOL     OW 1033   1.431   0.270   1.554 -0.2930 -0.0484 -0.1197
  345SOL    HW1 1034   1.356   0.221   1.587 -1.2352  1.5037  0.1647
  345SOL    HW2 1035   1.445   0.339   1.619  0.9775  0.0813 -0.5036
  346SOL     OW 1036   1.445   2.316   0.580 -0.4591  0.0009 -0.2129
  346SOL    HW1 1037   1.367   2.301   0.526 -0.4597  0.6697 -0.4057
  346SOL    HW2 1038   1.518   2.310   0.519 -0.3297 -0.8309  0.0034
  347SOL     OW 1039   0.393   1.294   0.373  0.0093  0.3485 -0.4595
  347SOL    HW1 1040   0.366   1.372   0.422 -1.5419  0.6715 -1.7615
  347SOL    HW2 1041   0.317   1.272   0.319  0.7879 -1.4783 -0.8673
  348SOL     OW 1042   1.239   0.185   0.722 -0.6351  0.0344 -0.2840
  348SOL    HW1 1043   1.238   0.172   0.817 -0.8057 -0.6364 -0.3735
  348SOL    HW2 1044   1.164   0.242   0.705 -1.5533 -1.0954 -0.1764
  349SOL     OW 1045   1.929   0.121   2.248  0.0196  0.8166  0.1855
  349SOL    HW1 1046   2.000   0.175   2.213 -0.2185  0.2657 -1.2056
  349SOL    HW2 1047   1.864   0.118   2.178 -1.0370  0.6717  1.1495
  350SOL     OW 1048   0.414   2.866   2.523 -0.3976 -0.2938  0.0138
  350SOL    HW1 1049   0.359   2.830   2.593 -1.8904  0.3060 -0.8223
  350SOL    HW2 1050   0.365   2.850   2.443  0.5162  0.5322 -0.7330
  351SOL     OW 1051   0.617   0.573   2.854  0.4148 -0.0108  0.2677
  351SOL    HW1 1052   0.552   0.572   2.924 -0.1759 -0.2792 -0.2731
  351SOL    HW2 1053   0.693   0.616   2.893 -0.2635  0.7881  0.7545
  352SOL     OW 1054   1.811   1.165   0.994 -0.3183 -0.8909  0.1440
  352SOL    HW1 1055   1.741   1.150   1.057 -0.4653  0.0161  0.2175
  352SOL    HW2 1056   1.785   1.115   0.916 -2.4663  1.4857 -0.8195
  353SOL     OW 1057   1.711   1.677   2.249 -0.0479  0.0928 -0.1901
  353SOL    HW1 1058   1.672   1.644   2.168  0.3813 -0.5624 -0.1388
  353SOL    HW2 1059   1.753   1.759   2.224  0.7454 -0.4849 -0.8163
  354SOL     OW 1060   1.088   2.711   1.543  0.0421 -0.2780 -0.4875
  354SOL    HW1 1061   1.064   2.755   1.624 -1.4322 -0.2934 -0.8792
  354SOL    HW2 1062   1.004   2.689   1.502  0.7317  0.2761 -2.3083
  355SOL     OW 1063   1.811   0.239   0.139 -0.3499  0.4867 -0.3379
  355SOL    HW1 1064   1.887   0.182   0.128 -2.1688 -2.2653  0.3305
  355SOL    HW2 1065   1.777   0.252   0.050 -1.0534 -1.2174 -0.3479
  356SOL     OW 1066   0.814   0.615   0.447  0.0018 -0.6632  0.1757
  356SOL    HW1 1067   0.811   0.695   0.395 -0.3866 -0.9096 -0.1935
  356SOL    HW2 1068   0.902   0.581   0.434 -0.1603 -0.8347 -0.4998
  357SOL     OW 1069   1.481   2.054   2.592 -0.0775  0.2144  0.2905
  357SOL    HW1 1070   1.517   1.966   2.586 -0.0643  0.0627  2.0112
  357SOL    HW2 1071   1.387   2.043   2.575  0.2523  0.2469 -1.7607
  358SOL     OW 1072   2.697   1.311   2.678  0.2252  0.3077  0.3084
  358SOL    HW1 1073   2.695   1.340   2.587  1.0262 -0.1086  0.1524
  358SOL    HW2 1074   2.781   1.267   2.687  0.0788  0.2059  1.2096
  359SOL     OW 1075   0.617   0.352   1.924  0.8517 -0.7591  0.1546
  359SOL    HW1 1076   0.662   0.436   1.921 -0.9023  0.2174 -0.3568
  359SOL    HW2 1077   0.588   0.344   2.015  2.5526 -1.7128  0.6560
  360SOL     OW 1078   2.348   2.784   1.052 -0.1191 -0.1080  0.5600
  360SOL    HW1 1079   2.299   2.769   0.971  2.6984  2.1185 -1.8340
  360SOL    HW2 1080   2.315   2.868   1.085 -0.0665 -0.1399  0.6935
  361SOL     OW 1081   1.890   1.403   1.435  0.6181 -0.1502 -0.3458
  361SOL    HW1 1082   1.818   1.354   1.475 -0.3261  1.9146  0.6467
  361SOL    HW2 1083   1.900   1.365   1.348 -1.8858 -0.3451 -0.6332
  362SOL     OW 1084   2.704   1.979   1.585 -0.7471  0.0438 -0.2423
  362SOL    HW1 1085   2.741   2.003   1.669  0.1084  0.0367 -0.6050
  362SOL    HW2 1086   2.623   2.029   1.579 -0.6637  0.2756  0.4488
  363SOL     OW 1087   2.075   1.587   2.955  0.1600 -0.3020  0.2025
  363SOL    HW1 1088   2.108   1.503   2.920  0.0338 -0.7464  1.1152
  363SOL    HW2 1089   2.043   1.634   2.878  3.4811  0.4565 -0.9169
  364SOL     OW 1090   1.535   0.472   1.751  0.3248  0.2698 -0.3439
  364SOL    HW1 1091   1.476   0.447   1.822 -1.0006 -0.7927 -1.7510
  364SOL    HW2 1092   1.613   0.418   1.764  0.7721  1.1879  1.1285
  365SOL     OW 1093   0.957   2.823   0.592  0.0568 -0.0157 -0.0066
  365SOL    HW1 1094   1.037   2.779   0.565 -1.0090 -1.2195 -1.3804
  365SOL    HW2 1095   0.939   2.887   0.522  0.0130  0.5073  0.4750
  366SOL     OW 1096   2.671   0.500   1.945 -0.4004 -0.2028 -0.6856
  366SOL    HW1 1097   2.626   0.425   1.986  0.5037  0.0280  0.8092
  366SOL    HW2 1098   2.602   0.566   1.936 -0.7311 -0.4239  0.0675
  367SOL     OW 1099   1.543   1.904   1.349 -0.5613  0.0973  0.1189
  367SOL    HW1 1100   1.616   1.858   1.308 -0.0103  0.5474  0.5815
  367SOL    HW2 1101   1.507   1.959   1.278  1.7519  2.5466  0.6890
  368SOL     OW 1102   0.432   2.800   0.968 -0.3889  0.1210  0.1319
  368SOL    HW1 1103   0.487   2.734   1.010  0.2912  1.0451  0.7167
  368SOL    HW2 1104   0.410   2.762   0.883  1.1299 -0.2875 -0.1093
  369SOL     OW 1105   1.473   2.726   0.229  0.7295  0.1151 -0.6234
  369SOL    HW1 1106   1.526   2.716   0.308  0.7359 -1.3612 -0.7786
  369SOL    HW2 1107   1.518   2.793   0.178  0.7162  1.1034  0.6174
  370SOL     OW 1108   1.898   1.911   2.205 -0.2438  0.1744  0.0203
  370SOL    HW1 1109   1.951   1.831   2.196 -0.7304 -0.3096  1.2302
  370SOL    HW2 1110   1.835   1.906   2.133 -0.2584 -0.5365  0.0746
  371SOL     OW 1111   2.778   1.767   2.513 -0.1594  0.2280  0.5109
  371SOL    HW1 1112   2.827   1.711   2.453  0.7473 -2.0949  3.1702
  371SOL    HW2 1113   2.809   1.855   2.495 -0.1221 -0.2981 -2.4836
  372SOL     OW 1114   0.606   2.675   0.102 -0.1572 -0.0813 -0.0224
  372SOL    HW1 1115   0.647   2.697   0.186  1.7749 -0.9065 -0.6820
  372SOL    HW2 1116   0.648   2.593   0.076 -1.2680 -0.2358 -1.4529
  373SOL     OW 1117   0.750   0.562   2.621  0.7816 -0.7002 -0.1115
  373SOL    HW1 1118   0.695   0.521   2.688 -0.7663  0.0240 -0.8990
  373SOL    HW2 1119   0.754   0.654   2.648  1.5485 -0.7238 -0.1238
  374SOL     OW 1120   1.537   1.933   0.726 -0.2491 -0.6605  0.2360
  374SOL    HW1 1121   1.481   2.005   0.753 -2.0394 -1.6088 -0.7543
  374SOL    HW2 1122   1.523   1.865   0.792 -0.1587 -0.8498  0.0646
  375SOL     OW 1123   0.628   1.645   2.502 -0.0305  0.4983 -0.8549
  375SOL    HW1 1124   0.671   1.697   2.434  1.6424  0.0616 -0.1780
  375SOL    HW2 1125   0.691   1.576   2.522 -1.2847 -0.4724 -0.1665
  376SOL     OW 1126   0.642   0.123   0.263 -0.0399  0.1753 -0.3671
  376SOL    HW1 1127   0.699   0.119   0.340 -1.6997  0.6525  0.9366
  376SOL    HW2 1128   0.696   0.164   0.196  1.2633  0.3168  0.7213
  377SOL     OW 1129   2.159   0.987   0.568  0.1235 -0.5158 -0.2953
  377SOL    HW1 1130   2.212   1.064   0.589 -0.4109 -0.1681 -0.2253
  377SOL    HW2 1131   2.138   0.996   0.476 -2.0412  0.7317  0.2649
  378SOL     OW 1132   0.781   1.555   0.295  0.0254 -0.5844 -0.0210
  378SOL    HW1 1133   0.839   1.624   0.260  0.6026  0.5717  2.8890
  378SOL    HW2 1134   0.693   1.584   0.270  0.3603  0.4982 -0.0390
  379SOL     OW 1135   0.515   2.244   1.640  0.1248  0.2597 -0.1787
  379SOL    HW1 1136   0.422   2.247   1.661  0.4765 -0.1045  1.5424
  379SOL    HW2 1137   0.518   2.211   1.550 -1.4086  0.6380 -0.3884
  380SOL     OW 1138   1.212   2.605   1.211  0.3285 -0.7500 -0.1017
  380SOL    HW1 1139   1.132   2.554   1.208 -1.5396  1.7065  2.3078
  380SOL    HW2 1140   1.275   2.548   1.257 -0.8270 -1.8280  0.2054
  381SOL     OW 1141   1.469   1.603   1.182 -0.1578  0.3503  0.6775
  381SOL    HW1 1142   1.446   1.570   1.269  0.1044  0.7460  0.8995
  381SOL    HW2 1143   1.553   1.561   1.162  0.1595  0.8414  0.9459
  382SOL     OW 1144   1.958   0.181   0.872 -0.0963  0.2630  0.2056
  382SOL    HW1 1145   1.921   0.246   0.812 -0.5486  0.2670  0.4825
  382SOL    HW2 1146   1.985   0.109   0.816 -0.9579  0.0579  0.0328
  383SOL     OW 1147   1.304   1.386   0.511 -0.2322  0.2280  0.1820
  383SOL    HW1 1148   1.368   1.429   0.456 -0.5852 -1.7840 -1.9690
  383SOL    HW2 1149   1.307   1.433   0.594  3.5506  0.6055 -0.0149
  384SOL     OW 1150   2.241   0.484   2.410 -0.0206  0.2550  0.0787
  384SOL    HW1 1151   2.240   0.513   2.501 -0.2375  0.1596  0.1056
  384SOL    HW2 1152   2.315   0.532   2.371  0.1036  0.2580  0.3155
  385SOL     OW 1153   1.672   2.535   1.088 -0.0119 -0.0963  0.1847
  385SOL    HW1 1154   1.625   2.518   1.170  1.4905  0.0929  1.1115
  385SOL    HW2 1155   1.689   2.629   1.089  0.7469 -0.2247  0.0695
  386SOL     OW 1156   2.275   1.075   2.811  0.0933 -0.1480  0.1439
  386SOL    HW1 1157   2.351   1.023   2.786 -0.3417 -0.4358 -0.6230
  386SOL    HW2 1158   2.215   1.012   2.851  0.9154  0.3605  2.3299
  387SOL     OW 1159   1.590   2.284   2.439 -0.1805 -0.6045  0.5597
  387SOL    HW1 1160   1.538   2.298   2.360  0.3329 -1.1376  0.1226
  387SOL    HW2 1161   1.548   2.211   2.484 -1.1947  0.4685  1.4146
  388SOL     OW 1162   2.681   0.067   1.966  0.2243  0.1439  0.4420
  388SOL    HW1 1163   2.619   0.131   1.932 -2.9230 -3.3446 -1.1226
  388SOL    HW2 1164   2.647   0.043   2.052  1.1552  0.2732  0.8599
  389SOL     OW 1165   0.167   1.482   1.486 -0.6161 -0.4581  0.1696
  389SOL    HW1 1166   0.232   1.539   1.527  0.2635 -0.2564 -1.4155
  389SOL    HW2 1167   0.110   1.542   1.439 -2.1772 -0.6112  1.7695
  390SOL     OW 1168   0.451   2.277   0.020  0.2149  0.1469  0.2621
  390SOL    HW1 1169   0.427   2.355  -0.031  2.3028  0.8159  0.1711
  390SOL    HW2 1170   0.467   2.310   0.108 -1.2778 -0.6426  0.8573
  391SOL     OW 1171   1.020   1.748   0.952 -0.2724 -0.1822 -0.7756
  391SOL    HW1 1172   1.048   1.751   0.861 -1.3218 -0.5407 -1.1245
  391SOL    HW2 1173   1.100   1.731   1.001  0.2835 -0.1020 -1.6352
  392SOL     OW 1174   0.306   0.541   1.983 -0.2883  0.0300  0.2350
  392SOL    HW1 1175   0.316   0.462   2.036  0.2215  0.3273  0.5859
  392SOL    HW2 1176   0.275   0.509   1.898 -0.2128 -0.5309  0.4154
  393SOL     OW 1177   0.066   1.680   1.026 -0.1786  0.2139  0.2047
  393SOL    HW1 1178   0.090   1.684   1.118 -0.9770 -2.0355  0.5780
  393SOL    HW2 1179   0.047   1.771   1.002  1.0748  0.9902  1.9326
  394SOL     OW 1180   0.943   1.582   0.581 -0.5124 -0.2306 -0.5793
  394SOL    HW1 1181   0.978   1.493   0.571 -0.3746 -0.6600  2.5584
  394SOL    HW2 1182   0.849   1.570   0.587 -0.3867 -0.6830  2.5720
  395SOL     OW 1183   1.360   2.921   0.674  0.2687  0.2140  0.2974
  395SOL    HW1 1184   1.303   2.996   0.691  1.3049  0.7338  1.6973
  395SOL    HW2 1185   1.432   2.931   0.737  1.2642 -1.0825 -0.5797
  396SOL     OW 1186   1.928   1.710   0.904  0.1031 -0.0673 -0.3734
  396SOL    HW1 1187   1.932   1.634   0.963  0.0154  0.5979  0.5208
  396SOL    HW2 1188   1.927   1.786   0.963  0.2983  0.6368 -1.2482
  397SOL     OW 1189   1.640   1.792   1.776 -0.3393 -0.1421 -0.3549
  397SOL    HW1 1190   1.591   1.712   1.754 -0.5671  0.0177 -0.4332
  397SOL    HW2 1191   1.659   1.832   1.691 -0.0896 -0.1936 -0.3230
  398SOL     OW 1192   1.944   1.226   0.727  0.1040 -0.5327  0.4705
  398SOL    HW1 1193   2.020   1.245   0.671  0.3307  1.0123  1.2279
  398SOL    HW2 1194   1.982   1.208   0.813 -0.3652  0.0867  0.8158
  399SOL     OW 1195   2.738   0.590   0.908  0.1993  0.0400 -0.3454
  399SOL    HW1 1196   2.825   0.624   0.889  0.2538 -1.2563 -2.6965
  399SOL    HW2 1197   2.752   0.500   0.937 -0.2631  0.4418  1.2346
  400SOL     OW 1198   1.554   0.243   2.478 -0.4237 -0.2106  0.3526
  400SOL    HW1 1199   1.553   0.151   2.504  0.7646 -0.8945 -1.7192
  400SOL    HW2 1200   1.631   0.280   2.521 -1.5629  0.1694  2.1377
  401SOL     OW 1201   2.080   0.673   1.299  0.4074 -0.0898  0.8609
  401SOL    HW1 1202   2.043   0.759   1.317 -1.1817 -0.4770 -0.3354
  401SOL    HW2 1203   2.117   0.645   1.382  0.4080  1.4726  1.4322
  402SOL     OW 1204   1.670   2.956   0.663  0.4685  0.3955  0.3246
  402SOL    HW1 1205   1.646   2.963   0.756 -1.3247 -1.0731  0.0315
  402SOL    HW2 1206   1.656   3.045   0.629 -2.5215  0.2007  0.7334
  403SOL     OW 1207   0.917   0.102   0.748  0.4780 -0.3049  0.3873
  403SOL    HW1 1208   0.981   0.032   0.739  1.2940  0.5432 -0.6169
  403SOL    HW2 1209   0.837   0.066   0.710  1.1911 -0.3254 -1.1446
  404SOL     OW 1210   2.817   0.958   2.182  0.1493  0.0689  0.1873
  404SOL    HW1 1211   2.835   0.911   2.263  0.5108  0.5333  0.3832
  404SOL    HW2 1212   2.854   0.904   2.113  0.6497  0.1103  0.4202
  405SOL     OW 1213   0.727   2.172   2.144 -0.5363 -0.2197 -0.4255
  405SOL    HW1 1214   0.782   2.249   2.130  0.3523 -0.3681  1.7540
  405SOL    HW2 1215   0.779   2.117   2.202 -2.4913 -0.9263  0.7417
  406SOL     OW 1216   1.236   0.475   2.087 -0.3364 -0.0586 -0.2784
  406SOL    HW1 1217   1.207   0.539   2.022  0.1113  1.0998  0.6173
  406SOL    HW2 1218   1.325   0.451   2.060 -1.2959 -2.0809 -1.8898
  407SOL     OW 1219   2.414   1.164   0.259 -0.0519 -0.1994 -0.2465
  407SOL    HW1 1220   2.384   1.086   0.305 -0.8235 -0.7686 -1.6545
  407SOL    HW2 1221   2.458   1.131   0.181  0.9543  0.7528 -0.1130
  408SOL     OW 1222   2.475   0.522   2.826 -0.2461 -0.0039  0.0087
  408SOL    HW1 1223   2.449   0.607   2.790  0.5088  0.2985  0.1494
  408SOL    HW2 1224   2.544   0.492   2.767 -1.0217 -0.8734 -0.4699
  409SOL     OW 1225   2.078   0.145   0.052  0.2826  0.2010  0.2141
  409SOL    HW1 1226   2.063   0.190  -0.031 -0.6753 -0.7238 -0.1294
  409SOL    HW2 1227   2.146   0.081   0.034 -2.2319 -2.3987 -0.8427
  410SOL     OW 1228   1.945   1.984   0.331  0.2506 -0.3831  0.4576
  410SOL    HW1 1229   1.921   2.034   0.409  0.3844 -0.1883  0.3740
  410SOL    HW2 1230   2.039   1.965   0.342  0.1660 -0.7574  0.5674
  411SOL     OW 1231   2.243   1.242   1.719 -0.4839 -0.7051 -0.3457
  411SOL    HW1 1232   2.264   1.268   1.629 -0.6835  0.7068 -0.0065
  411SOL    HW2 1233   2.159   1.285   1.737  1.0777  1.8914  1.6122
  412SOL     OW 1234   0.490   2.247   0.965  0.0046  0.4001 -0.9768
  412SOL    HW1 1235   0.538   2.226   1.045  1.1344  2.5412 -1.0315
  412SOL    HW2 1236   0.515   2.179   0.903 -0.8996 -1.3075  0.4281
  413SOL     OW 1237   2.011   1.200   0.076 -0.1202 -1.0153  0.2634
  413SOL    HW1 1238   2.038   1.254   0.150  0.2316 -0.1939 -0.4523
  413SOL    HW2 1239   2.058   1.236   0.001 -0.2774 -1.9946 -0.3254
  414SOL     OW 1240   2.735   2.341   0.949 -0.0518 -0.0130  0.5005
  414SOL    HW1 1241   2.723   2.350   1.044  0.2414  0.1128  0.5274
  414SOL    HW2 1242   2.776   2.423   0.922  0.8525 -0.4710  0.4390
  415SOL     OW 1243   0.794   2.636   1.558 -0.4219  0.4451  0.1010
  415SOL    HW1 1244   0.781   2.720   1.513  2.1080  1.9560  1.9329
  415SOL    HW2 1245   0.720   2.629   1.618 -1.8835  0.1624 -1.6502
  416SOL     OW 1246   1.970   2.578   0.037  0.2753  0.5229 -0.1121
  416SOL    HW1 1247   2.063   2.554   0.036  0.1097 -0.1756  0.4251
  416SOL    HW2 1248   1.932   2.523   0.106 -0.5647  0.6935 -0.4275
  417SOL     OW 1249   0.677   2.877   1.489 -0.3539 -0.0158  0.5234
  417SOL    HW1 1250   0.655   2.950   1.547  0.8160  0.0197  0.9510
  417SOL    HW2 1251   0.614   2.884   1.418 -0.5551  1.1440  0.7832
  418SOL     OW 1252   2.232   2.508   0.136 -0.0986 -0.1005 -0.7746
  418SOL    HW1 1253   2.315   2.555   0.125 -0.1304  0.2852  0.5348
  418SOL    HW2 1254   2.236   2.438   0.071  0.6798  0.6988 -1.6125
  419SOL     OW 1255   2.638   0.864   0.885 -0.1567  0.4395  0.6220
  419SOL    HW1 1256   2.549   0.859   0.851  0.4634  0.1690 -1.0528
  419SOL    HW2 1257   2.654   0.778   0.923 -0.7254  0.6115  1.2683
  420SOL     OW 1258   1.741   1.060   0.736 -0.1296 -0.8473  0.6186
  420SOL    HW1 1259   1.797   1.137   0.742 -1.2813 -0.0962  3.8657
  420SOL    HW2 1260   1.680   1.079   0.665  0.4863  0.5962  0.4516
  421SOL     OW 1261   2.791   1.373   1.930  0.2610  0.4176 -0.0250
  421SOL    HW1 1262   2.882   1.404   1.927  0.9779 -1.4493  1.0915
  421SOL    HW2 1263   2.787   1.305   1.863 -0.2311  0.2638  0.1609
  422SOL     OW 1264   2.416   2.533   1.735 -0.4163  0.2693  0.2386
  422SOL    HW1 1265   2.405   2.628   1.732  0.6192  0.5829  3.1820
  422SOL    HW2 1266   2.331   2.500   1.763 -0.4966  0.4122  0.1654
  423SOL     OW 1267   1.196   0.932   2.182 -0.2058  0.4093  0.4212
  423SOL    HW1 1268   1.119   0.895   2.224  0.0675  2.9180  3.4749
  423SOL    HW2 1269   1.161   0.996   2.119 -0.6858  1.1955  1.4570
  424SOL     OW 1270   2.091   2.578   0.372 -0.0282 -0.3613 -0.2185
  424SOL    HW1 1271   2.140   2.569   0.291  0.2290 -1.1236  0.0081
  424SOL    HW2 1272   2.071   2.488   0.398  1.1828 -0.2385  1.3342
  425SOL     OW 1273   0.439   2.124   1.390  0.1579 -0.1545  0.3698
  425SOL    HW1 1274   0.505   2.163   1.333  1.1016 -1.4216  0.5461
  425SOL    HW2 1275   0.365   2.185   1.387  0.6119  0.3594 -1.2983
  426SOL     OW 1276   0.761   1.513   1.283 -0.3019  0.4562  0.0482
  426SOL    HW1 1277   0.851   1.518   1.250  0.1398  0.9970  1.2895
  426SOL    HW2 1278   0.706   1.536   1.208  0.6194  0.7388 -0.5477
  427SOL     OW 1279   1.176   2.163   1.089 -0.9124  0.0682 -0.3081
  427SOL    HW1 1280   1.141   2.088   1.137 -0.6589 -1.9749 -3.0859
  427SOL    HW2 1281   1.133   2.159   1.003 -1.3218  3.5134 -0.4096
  428SOL     OW 1282   1.329   2.618   2.787 -0.0938  0.0226  0.0536
  428SOL    HW1 1283   1.321   2.676   2.862  2.2488  0.2198  0.2161
  428SOL    HW2 1284   1.415   2.638   2.750  0.0658 -2.1731 -0.8974
  429SOL     OW 1285   2.723   1.748   1.309  0.7578  0.3803 -0.0565
  429SOL    HW1 1286   2.769   1.712   1.385 -0.1181  1.2659  0.9237
  429SOL    HW2 1287   2.645   1.789   1.346 -0.3112 -0.2106 -1.5672
  430SOL     OW 1288   1.158   2.402   2.432  0.0970 -0.3965  0.1229
  430SOL    HW1 1289   1.116   2.483   2.400 -1.1732 -0.8915  0.4848
  430SOL    HW2 1290   1.101   2.332   2.401  1.1813 -1.1766 -0.1677
  431SOL     OW 1291   2.880   2.682   0.250  0.2955 -0.1506  0.3727
  431SOL    HW1 1292   2.950   2.743   0.227 -1.3516  1.6342 -0.1684
  431SOL    HW2 1293   2.801   2.737   0.255 -1.5672 -2.3949 -1.5775
  432SOL     OW 1294   1.840   2.415   0.245 -1.0912 -0.1678 -0.4388
  432SOL    HW1 1295   1.909   2.370   0.294 -2.3919 -2.3727 -0.4965
  432SOL    HW2 1296   1.780   2.448   0.312 -1.8141 -1.4039 -0.4556
  433SOL     OW 1297   0.977   2.670   2.938 -0.1891 -0.1947 -0.0640
  433SOL    HW1 1298   1.046   2.726   2.901 -0.7139  1.6528  1.5608
  433SOL    HW2 1299   0.929   2.637   2.862  2.1297 -1.1138 -1.2070
  434SOL     OW 1300   1.818   2.725   1.800  0.1884 -0.2340  0.4501
  434SOL    HW1 1301   1.824   2.631   1.783 -0.7388 -0.3105  0.4610
  434SOL    HW2 1302   1.727   2.738   1.828 -0.1899  0.9074 -1.1532
  435SOL     OW 1303   1.696   0.266   0.547 -0.2502 -0.0112  0.5295
  435SOL    HW1 1304   1.790   0.255   0.554 -0.3602 -1.7715 -0.3375
  435SOL    HW2 1305   1.683   0.313   0.464 -0.1985 -1.1866 -0.1575
  436SOL     OW 1306   1.170   1.605   2.778  0.2541  0.1252  0.3366
  436SOL    HW1 1307   1.103   1.642   2.835 -0.6609 -1.0172  0.0524
  436SOL    HW2 1308   1.250   1.606   2.830 -0.3335  0.0605  1.2510
  437SOL     OW 1309   2.269   2.824   0.160  0.5792 -0.1956  0.0336
  437SOL    HW1 1310   2.255   2.730   0.171  2.8212 -0.7608 -1.2299
  437SOL    HW2 1311   2.332   2.847   0.229  0.8307  0.1327 -0.3017
  438SOL     OW 1312   1.577   2.939   2.533  0.1228 -0.3487 -0.9049
  438SOL    HW1 1313   1.672   2.954   2.539 -0.0011  0.0820  0.6234
  438SOL    HW2 1314   1.559   2.874   2.602 -0.6251 -0.8093 -1.5240
  439SOL     OW 1315   0.306   2.239   2.659 -0.1824 -0.0683 -0.3071
  439SOL    HW1 1316   0.340   2.271   2.576 -1.0041  0.5434 -0.4217
  439SOL    HW2 1317   0.342   2.150   2.668  0.9716  0.3556 -0.6668
  440SOL     OW 1318   0.722   1.784   1.706  0.4692  0.3102 -0.5184
  440SOL    HW1 1319   0.677   1.738   1.777 -1.6124  1.4189 -1.0291
  440SOL    HW2 1320   0.746   1.868   1.744  3.2688 -0.6625  0.0825
  441SOL     OW 1321   2.944   1.960   1.441 -0.1638 -0.0664  0.2570
  441SOL    HW1 1322   2.990   1.903   1.502  0.1181  0.1281  0.2263
  441SOL    HW2 1323   2.875   2.001   1.493 -0.1523 -0.1766  0.3579
  442SOL     OW 1324   2.201   1.188   2.449  0.1348 -0.0079  0.1279
  442SOL    HW1 1325   2.155   1.107   2.469  0.1175  0.3896  1.8444
  442SOL    HW2 1326   2.291   1.172   2.479  0.1456  0.5966  0.4173
  443SOL     OW 1327   1.876   0.812   2.036 -0.3424  0.8138 -0.1083
  443SOL    HW1 1328   1.782   0.795   2.050 -0.5463  1.3723 -0.7256
  443SOL    HW2 1329   1.890   0.791   1.944  0.1904  0.5521  0.0299
  444SOL     OW 1330   0.087   1.639   0.325 -0.4255  0.1099  0.0950
  444SOL    HW1 1331   0.145   1.657   0.251  0.9779 -1.0804  0.8519
  444SOL    HW2 1332   0.012   1.594   0.286 -0.0237  0.1027 -0.6878
  445SOL     OW 1333   1.161   1.027   1.818  0.3480 -0.8176  0.3515
  445SOL    HW1 1334   1.094   0.961   1.798  0.5403 -1.1351  0.7306
  445SOL    HW2 1335   1.242   0.976   1.824  0.2203 -0.8527  2.5379
  446SOL     OW 1336   0.226   2.432   0.635  0.0383 -0.1647  0.1434
  446SOL    HW1 1337   0.281   2.357   0.613  2.8152  1.8959 -0.5886
  446SOL    HW2 1338   0.225   2.435   0.730  1.0414 -0.3947  0.1715
  447SOL     OW 1339   0.574   2.221   2.398  0.4563  0.1756 -0.2658
  447SOL    HW1 1340   0.531   2.196   2.317 -2.0435 -2.2452  1.6114
  447SOL    HW2 1341   0.635   2.291   2.373 -1.2033  0.5245 -3.9168
  448SOL     OW 1342   0.569   1.877   1.424 -0.1093 -0.1367 -0.2496
  448SOL    HW1 1343   0.621   1.892   1.503 -1.4517 -0.7543  0.7849
  448SOL    HW2 1344   0.539   1.964   1.398  0.4156  0.0813 -0.1364
  449SOL     OW 1345   2.270   1.525   2.669  0.2590 -0.1473  0.2824
  449SOL    HW1 1346   2.194   1.583   2.680 -0.3662 -0.2366 -2.8060
  449SOL    HW2 1347   2.345   1.583   2.661 -0.1367  0.1893 -1.1316
  450SOL     OW 1348   2.784   2.539   0.005  0.5528  0.3871 -0.0745
  450SOL    HW1 1349   2.723   2.468   0.024  0.2247  0.6434 -0.1582
  450SOL    HW2 1350   2.820   2.562   0.091 -0.7297  1.3624  0.2355
  451SOL     OW 1351   0.521   1.678   0.307  0.0103  0.4519 -0.3309
  451SOL    HW1 1352   0.444   1.648   0.354  1.1138 -0.6775  0.8570
  451SOL    HW2 1353   0.531   1.769   0.333 -0.3722  0.3275  0.2611
  452SOL     OW 1354   0.863   2.789   1.045  0.2771  0.7301  0.1927
  452SOL    HW1 1355   0.945   2.789   0.995  0.8740  1.4009  1.1422
  452SOL    HW2 1356   0.797   2.763   0.981  1.3387 -0.7464 -0.3713
  453SOL     OW 1357   1.028   1.699   2.562 -0.4545 -0.1372 -0.4965
  453SOL    HW1 1358   0.984   1.766   2.614  0.3220  0.1718 -0.2296
  453SOL    HW2 1359   1.090   1.659   2.622  0.4047  0.1738 -1.1578
  454SOL     OW 1360   1.420   2.687   1.021  0.5120 -0.3332  0.2883
  454SOL    HW1 1361   1.506   2.652   1.044  0.4600  0.0641  1.1197
  454SOL    HW2 1362   1.378   2.703   1.105 -1.1405 -2.3343 -0.0618
  455SOL     OW 1363   1.145   0.453   0.375 -0.1047  0.5139 -0.2413
  455SOL    HW1 1364   1.203   0.450   0.299 -0.1276  2.3157 -0.3644
  455SOL    HW2 1365   1.203   0.447   0.450 -0.1434 -2.1904 -0.3391
  456SOL     OW 1366   0.498   0.838   2.652  0.4734 -0.0615 -0.2956
  456SOL    HW1 1367   0.592   0.849   2.640  0.2506  0.9643 -1.3044
  456SOL    HW2 1368   0.482   0.745   2.636  1.4648 -0.5044  1.1003
  457SOL     OW 1369   1.293   0.550   1.464 -0.0872  0.1274 -0.0858
  457SOL    HW1 1370   1.217   0.498   1.436  0.1101  0.2703 -0.9311
  457SOL    HW2 1371   1.295   0.541   1.559 -0.7430 -0.4618 -0.1193
  458SOL     OW 1372   0.010   2.862   0.478 -0.0376  0.3283  0.2534
  458SOL    HW1 1373   0.105   2.871   0.486  0.0270 -0.1657  0.0583
  458SOL    HW2 1374  -0.005   2.768   0.471 -0.5367  0.4076  0.2142
  459SOL     OW 1375   1.600   1.216   2.053  0.4283  0.0254 -0.1303
  459SOL    HW1 1376   1.512   1.221   2.092  0.9439 -0.9106  1.2291
  459SOL    HW2 1377   1.658   1.205   2.128  1.8506  1.8280 -0.9065
  460SOL     OW 1378   2.640   0.409   1.143  0.2156 -0.6315 -0.5368
  460SOL    HW1 1379   2.565   0.468   1.147  0.1887 -0.7181  0.7681
  460SOL    HW2 1380   2.627   0.359   1.062  0.8880  1.9343 -2.3374
  461SOL     OW 1381   0.742   1.106   1.125 -0.3394  0.0577 -0.0372
  461SOL    HW1 1382   0.730   1.178   1.063  0.9940  0.3394 -0.0036
  461SOL    HW2 1383   0.830   1.121   1.161 -0.9730 -0.2357  1.7270
  462SOL     OW 1384   1.018   2.099   0.859 -0.2100  0.6686  0.1317
  462SOL    HW1 1385   0.948   2.061   0.912 -0.3962  0.5762 -0.1752
  462SOL    HW2 1386   0.986   2.091   0.769  0.2020  0.6153 -0.0107
  463SOL     OW 1387   1.425   0.909   1.450  0.5183 -0.2598 -0.4596
  463SOL    HW1 1388   1.520   0.916   1.457  0.3993 -0.7059  2.9948
  463SOL    HW2 1389   1.393   0.991   1.488 -0.5101 -0.1442 -1.5392
  464SOL     OW 1390   1.512   1.856   2.896  0.1802  0.0652  0.5692
  464SOL    HW1 1391   1.449   1.818   2.834  0.8681 -2.8713  1.5037
  464SOL    HW2 1392   1.464   1.860   2.979 -0.0323  1.8508  0.3916
  465SOL     OW 1393   0.887   2.116   1.229 -0.3031 -0.0836  0.1788
  465SOL    HW1 1394   0.966   2.067   1.252  0.5746  1.1867 -0.0649
  465SOL    HW2 1395   0.845   2.061   1.162 -0.4866 -1.5369  1.4260
  466SOL     OW 1396   0.163   2.561   2.100  0.1044  0.4436 -0.2610
  466SOL    HW1 1397   0.147   2.477   2.057  1.6086  0.8893 -1.8034
  466SOL    HW2 1398   0.148   2.627   2.031 -2.3382  1.6018  1.2352
  467SOL     OW 1399   1.765   0.799   0.693 -0.3939 -0.5999 -0.0756
  467SOL    HW1 1400   1.682   0.768   0.656 -0.4763  0.5145 -0.8741
  467SOL    HW2 1401   1.750   0.892   0.711  0.9416 -0.1600 -1.0599
  468SOL     OW 1402   2.237   0.359   2.902  0.4460  0.4139  0.0305
  468SOL    HW1 1403   2.314   0.412   2.880 -0.6834  2.7719  1.3560
  468SOL    HW2 1404   2.269   0.295   2.965  1.2858  1.6430  0.9063
  469SOL     OW 1405   0.005   2.730   1.548  0.2538  0.1356  0.0068
  469SOL    HW1 1406  -0.073   2.785   1.555  0.3214  0.1740  0.4744
  469SOL    HW2 1407   0.069   2.784   1.502 -0.3225 -0.2542 -1.2997
  470SOL     OW 1408   2.365   2.844   2.010  0.3886 -0.4901 -0.3107
  470SOL    HW1 1409   2.424   2.874   2.079 -0.5316 -0.6639  0.5729
  470SOL    HW2 1410   2.290   2.808   2.057 -0.1151 -0.9004 -1.4058
  471SOL     OW 1411   1.306   2.729   1.800 -0.0066  0.2086 -0.2416
  471SOL    HW1 1412   1.231   2.701   1.749  0.8172 -0.1715 -1.2834
  471SOL    HW2 1413   1.288   2.698   1.889  0.0028 -2.0328 -0.9530
  472SOL     OW 1414   2.236   0.217   0.592 -0.5729  0.0294 -0.1418
  472SOL    HW1 1415   2.215   0.298   0.639 -1.1028  0.5290 -1.2015
  472SOL    HW2 1416   2.322   0.232   0.555  0.1468 -0.6255  1.1847
  473SOL     OW 1417   1.771   2.455   1.481 -0.0831  0.4461 -0.7715
  473SOL    HW1 1418   1.779   2.386   1.416  1.0188  1.0961 -1.3529
  473SOL    HW2 1419   1.839   2.437   1.545  1.6109  2.0727 -2.0004
  474SOL     OW 1420   2.876   1.898   2.940  0.3817 -0.3916  0.5675
  474SOL    HW1 1421   2.805   1.919   2.879  0.3981 -1.6132  0.0972
  474SOL    HW2 1422   2.917   1.983   2.959  0.1545  0.0745 -0.8574
  475SOL     OW 1423   0.532   0.016   0.498 -0.5297 -0.0304  0.0361
  475SOL    HW1 1424   0.515   0.105   0.529  1.6581 -0.3057  2.3312
  475SOL    HW2 1425   0.570   0.028   0.411  0.0287  1.3281  0.4401
  476SOL     OW 1426   0.777   0.567   2.037 -0.0552  0.2874 -0.4189
  476SOL    HW1 1427   0.857   0.560   2.088 -1.2125 -0.3929  1.4167
  476SOL    HW2 1428   0.709   0.584   2.102 -1.5014  0.1654 -1.8424
  477SOL     OW 1429   1.142   1.833   2.327  0.1613 -0.2754  0.2340
  477SOL    HW1 1430   1.222   1.800   2.287  0.4856 -0.7521  1.2217
  477SOL    HW2 1431   1.129   1.776   2.403 -1.0264 -0.0963  0.1765
  478SOL     OW 1432   2.590   0.269   1.771  0.0725 -0.1369  0.3659
  478SOL    HW1 1433   2.616   0.361   1.779 -3.1395  0.9652 -0.4084
  478SOL    HW2 1434   2.507   0.263   1.817 -0.6331 -2.2560 -1.0053
  479SOL     OW 1435   1.095   2.075   1.967  0.1318  0.7456  0.4276
  479SOL    HW1 1436   1.051   2.098   2.048  0.7425 -0.2653  1.0651
  479SOL    HW2 1437   1.075   1.983   1.954  0.8758  0.6385 -0.0269
  480SOL     OW 1438   1.197   0.786   1.377  0.0121  0.6203 -0.2006
  480SOL    HW1 1439   1.285   0.815   1.353  0.7176 -0.0879  1.4066
  480SOL    HW2 1440   1.211   0.706   1.428 -1.6426 -0.1621 -0.8815
  481SOL     OW 1441   1.008   0.539   2.224 -0.6007 -0.1094  0.3691
  481SOL    HW1 1442   1.084   0.556   2.168 -0.4960 -0.1229  0.5065
  481SOL    HW2 1443   1.044   0.497   2.301 -1.0485 -2.7500 -0.7486
  482SOL     OW 1444   0.867   2.411   2.178 -0.5833 -0.4811 -0.3821
  482SOL    HW1 1445   0.786   2.448   2.142 -0.5233 -1.5679 -1.7446
  482SOL    HW2 1446   0.904   2.481   2.231 -2.2813  0.1325  0.0765
  483SOL     OW 1447   1.957   2.589   2.024 -0.0194  0.0206  0.0106
  483SOL    HW1 1448   2.012   2.642   1.967  0.0745  0.4694  0.5068
  483SOL    HW2 1449   1.953   2.503   1.982  1.3279 -0.1187  0.1293
  484SOL     OW 1450   2.948   2.696   1.148 -0.0157 -0.1400 -0.0212
  484SOL    HW1 1451   2.969   2.781   1.109 -0.7643 -0.3035 -0.8255
  484SOL    HW2 1452   2.870   2.712   1.201 -0.4784 -0.4088 -0.5970
  485SOL     OW 1453   1.624   0.741   2.129 -0.1370 -0.4123  0.3991
  485SOL    HW1 1454   1.651   0.649   2.130 -3.2884 -1.4712  1.8728
  485SOL    HW2 1455   1.644   0.772   2.217  0.4275  0.1815  0.0682
  486SOL     OW 1456   1.443   2.399   0.966  0.3012 -0.6952  0.5186
  486SOL    HW1 1457   1.515   2.368   1.022 -0.0536  1.2869  2.1692
  486SOL    HW2 1458   1.393   2.459   1.022  0.0151  1.5520 -1.9699
  487SOL     OW 1459   2.635   0.452   2.493  0.6385 -0.4872 -0.1301
  487SOL    HW1 1460   2.720   0.447   2.448  0.9355 -0.2425  0.3992
  487SOL    HW2 1461   2.593   0.529   2.455  1.1079  0.0291  0.3767
  488SOL     OW 1462   1.252   0.288   2.280 -0.4940 -0.4891 -0.7453
  488SOL    HW1 1463   1.274   0.209   2.231 -0.8201 -1.1046  0.0764
  488SOL    HW2 1464   1.242   0.355   2.213 -0.6997 -1.2543 -1.5050
  489SOL     OW 1465   2.911   1.677   2.306 -0.1135 -0.2987  0.4707
  489SOL    HW1 1466   2.897   1.584   2.326  1.4555 -0.5854  0.3094
  489SOL    HW2 1467   3.005   1.691   2.317  0.3537  0.3677 -3.2497
  490SOL     OW 1468   2.002   0.273   2.776 -0.0836 -0.0268 -0.7574
  490SOL    HW1 1469   2.077   0.327   2.802 -1.2308  1.9793 -1.3770
  490SOL    HW2 1470   2.037   0.213   2.710  1.3573 -0.4334  0.3309
  491SOL     OW 1471   2.944   1.477   2.562  0.1029 -0.1485  0.1554
  491SOL    HW1 1472   2.901   1.524   2.633  1.7576  1.3027  0.2735
  491SOL    HW2 1473   3.031   1.457   2.595  0.3650 -0.8675 -0.9106
  492SOL     OW 1474   1.975   1.664   1.930  1.0329  0.2024 -0.1010
  492SOL    HW1 1475   1.896   1.679   1.981  2.5701  0.7029  2.2927
  492SOL    HW2 1476   1.951   1.597   1.867 -0.7606 -1.1791  1.9224
  493SOL     OW 1477   1.714   1.861   2.035 -0.1326 -0.3312 -0.4420
  493SOL    HW1 1478   1.722   1.839   1.942 -0.1142 -0.9372 -0.2972
  493SOL    HW2 1479   1.623   1.891   2.043  0.5168  2.0794 -1.1312
  494SOL     OW 1480   2.642   2.439   0.589  0.5449  0.4309  0.1177
  494SOL    HW1 1481   2.550   2.465   0.595  0.3428  0.1899 -1.5264
  494SOL    HW2 1482   2.668   2.423   0.680 -0.6273  1.8641  0.7530
  495SOL     OW 1483   0.213   1.726   2.344 -0.0051 -0.4291  0.3945
  495SOL    HW1 1484   0.214   1.722   2.439 -0.5674  1.4144  0.5000
  495SOL    HW2 1485   0.297   1.766   2.320 -1.0031  1.7268  0.3075
  496SOL     OW 1486   2.515   2.017   2.150 -0.0239 -0.2343  0.5607
  496SOL    HW1 1487   2.474   1.940   2.111  0.1454  0.3894 -0.9206
  496SOL    HW2 1488   2.603   1.987   2.176  0.4995 -0.2633 -1.1391
  497SOL     OW 1489   0.122   0.111   2.148  0.2161 -0.3535  0.3992
  497SOL    HW1 1490   0.072   0.192   2.161  0.9619  0.3062 -0.6898
  497SOL    HW2 1491   0.086   0.073   2.068  2.8601  1.3313 -1.7894
  498SOL     OW 1492   1.016   0.705   2.964  0.4015 -0.5514  0.1477
  498SOL    HW1 1493   1.042   0.688   2.874  0.3231 -0.1062  0.0352
  498SOL    HW2 1494   1.093   0.685   3.016  1.0504  0.9008 -0.1950
  499SOL     OW 1495   0.169   0.384   2.298 -0.9231  0.1262  0.3980
  499SOL    HW1 1496   0.126   0.415   2.219 -1.4142 -0.5760  0.3752
  499SOL    HW2 1497   0.256   0.356   2.269  0.2743  3.1890  0.7481
  500SOL     OW 1498   1.086   1.757   0.051  0.0754 -0.0443  0.0686
  500SOL    HW1 1499   1.031   1.778   0.127 -0.9135 -1.3547 -0.2490
  500SOL    HW2 1500   1.176   1.767   0.082 -0.3161  0.9515  0.9491
  501SOL     OW 1501   2.046   0.936   0.827  0.1167  0.2508  0.3048
  501SOL    HW1 1502   2.088   0.954   0.743  1.2702  0.7239  0.9602
  501SOL    HW2 1503   1.956   0.966   0.815  0.1896  0.0713 -0.8412
  502SOL     OW 1504   1.173   2.372   0.432 -0.0908  0.3043  0.0907
  502SOL    HW1 1505   1.105   2.354   0.367  0.8428 -2.1531 -0.3518
  502SOL    HW2 1506   1.240   2.420   0.384  0.2251 -0.7768 -0.5794
  503SOL     OW 1507   2.299   2.352   2.856  0.5353  0.0161  0.5247
  503SOL    HW1 1508   2.264   2.419   2.797  0.6177  1.4643  2.0643
  503SOL    HW2 1509   2.377   2.319   2.810 -0.2737 -0.0232 -0.8694
  504SOL     OW 1510   1.220   1.081   0.122 -0.1174 -0.1010 -0.0898
  504SOL    HW1 1511   1.258   1.168   0.113  0.9457 -0.6434 -1.0530
  504SOL    HW2 1512   1.227   1.042   0.035 -0.9086 -1.0186  0.2411
  505SOL     OW 1513   0.719   1.337   0.953  0.2025 -0.6020 -0.1650
  505SOL    HW1 1514   0.809   1.367   0.946 -0.4522  1.8656  0.8735
  505SOL    HW2 1515   0.669   1.416   0.973 -1.8351 -2.2695  1.8689
  506SOL     OW 1516   2.649   2.838   1.787 -0.7327  0.3693  0.3551
  506SOL    HW1 1517   2.603   2.774   1.841 -1.4252  0.8892  0.3871
  506SOL    HW2 1518   2.649   2.918   1.840  0.4353  0.3168  0.4639
  507SOL     OW 1519   2.718   1.562   0.632 -0.2787  0.4575  0.2797
  507SOL    HW1 1520   2.808   1.535   0.618 -0.7346 -0.1481 -1.7990
  507SOL    HW2 1521   2.680   1.494   0.688  0.5288  0.7235  1.1725
  508SOL     OW 1522   2.833   1.064   0.097 -0.3739  0.0232 -0.3330
  508SOL    HW1 1523   2.822   1.000   0.027 -0.9158  1.2416 -1.4282
  508SOL    HW2 1524   2.897   1.127   0.062 -0.5917  0.6043  0.2888
  509SOL     OW 1525   2.218   2.184   2.565 -0.1118 -0.1309 -0.7111
  509SOL    HW1 1526   2.297   2.148   2.605 -0.6274 -0.4848  0.0242
  509SOL    HW2 1527   2.241   2.198   2.474  0.3360 -1.6343 -0.8451
  510SOL     OW 1528   1.345   1.160   2.247 -1.0672 -0.2882  0.1430
  510SOL    HW1 1529   1.358   1.180   2.340 -2.3333  0.9260  0.0940
  510SOL    HW2 1530   1.299   1.076   2.246  1.8275 -1.9824  0.4613
  511SOL     OW 1531   0.931   0.775   0.901 -0.1347 -0.2639  0.1563
  511SOL    HW1 1532   0.961   0.773   0.992 -0.7630 -1.6410  0.3462
  511SOL    HW2 1533   0.858   0.714   0.898 -1.4537  1.2879 -0.8372
  512SOL     OW 1534   2.166   1.310   0.580 -0.2247 -0.8202 -0.3159
  512SOL    HW1 1535   2.248   1.283   0.621  1.5215 -0.2842 -3.1789
  512SOL    HW2 1536   2.151   1.399   0.614  1.4016 -0.2129 -1.0688
  513SOL     OW 1537   1.853   2.260   1.827  0.2494 -0.4938  0.4235
  513SOL    HW1 1538   1.864   2.330   1.762  0.6890 -0.3500  0.6497
  513SOL    HW2 1539   1.761   2.235   1.821 -0.1132  0.6834  0.9277
  514SOL     OW 1540   0.059   2.235   2.781  0.6679 -0.9176  0.3461
  514SOL    HW1 1541   0.149   2.230   2.748  0.6285  1.4408 -0.2450
  514SOL    HW2 1542   0.069   2.237   2.876  0.9628 -4.1543  0.5165
  515SOL     OW 1543   0.644   2.789   1.924 -0.0397  0.0371 -0.2640
  515SOL    HW1 1544   0.656   2.882   1.940  0.7358 -0.2108  0.6877
  515SOL    HW2 1545   0.626   2.783   1.830  0.7856  1.0645 -0.5073
  516SOL     OW 1546   0.740   2.076   1.622  0.0894  0.2897  0.1301
  516SOL    HW1 1547   0.795   2.153   1.606  0.5150  0.9531  3.8968
  516SOL    HW2 1548   0.660   2.111   1.660 -0.1199 -1.0553  1.0083
  517SOL     OW 1549   0.238   2.771   2.323 -0.3076 -0.1394  0.5884
  517SOL    HW1 1550   0.222   2.708   2.252 -0.5515  0.4743  0.0953
  517SOL    HW2 1551   0.151   2.800   2.350 -0.1474  2.1233 -1.1233
  518SOL     OW 1552   2.154   0.438   0.775  0.2118 -0.7198 -0.1185
  518SOL    HW1 1553   2.136   0.481   0.858  0.6484 -0.8934  0.0684
  518SOL    HW2 1554   2.133   0.504   0.709 -0.5184 -0.7212  0.1106
  519SOL     OW 1555   0.664   0.125   1.639 -0.0521  0.1562  0.2250
  519SOL    HW1 1556   0.734   0.134   1.574 -0.8144 -0.0603 -0.6434
  519SOL    HW2 1557   0.614   0.207   1.631  0.8518  0.9008  1.7742
  520SOL     OW 1558   2.589   1.518   2.010  0.5102 -0.4884 -0.0831
  520SOL    HW1 1559   2.517   1.507   1.948 -0.2543 -0.6780  0.8126
  520SOL    HW2 1560   2.662   1.470   1.971 -0.1365 -1.1168 -0.5453
  521SOL     OW 1561   0.594   1.738   0.796  0.3217  0.1825  0.2160
  521SOL    HW1 1562   0.646   1.679   0.742 -0.7154 -1.1505  0.6395
  521SOL    HW2 1563   0.560   1.803   0.734  1.5662  0.4377 -0.2312
  522SOL     OW 1564   2.603   0.077   0.696 -0.2928 -0.1475  0.0596
  522SOL    HW1 1565   2.678   0.069   0.755  0.5793  1.3633 -0.7698
  522SOL    HW2 1566   2.542   0.010   0.725  0.6305 -0.2602  1.8842
  523SOL     OW 1567   0.214   2.833   1.857  0.0616 -0.1782  0.2902
  523SOL    HW1 1568   0.125   2.859   1.883 -1.2700 -2.0227 -1.9939
  523SOL    HW2 1569   0.234   2.888   1.781  1.0509  0.4025  0.9371
  524SOL     OW 1570   1.330   1.678   2.157 -0.1859 -0.2347  0.3038
  524SOL    HW1 1571   1.308   1.742   2.089 -0.6844 -1.8737 -1.1308
  524SOL    HW2 1572   1.414   1.641   2.129 -0.6210 -1.2597  0.3096
  525SOL     OW 1573   0.455   1.108   0.132 -0.0792  0.5892 -0.5855
  525SOL    HW1 1574   0.434   1.052   0.058  0.6531  0.0237 -0.3750
  525SOL    HW2 1575   0.370   1.140   0.162 -0.6545 -1.2836 -0.0410
  526SOL     OW 1576   0.436   0.286   1.734 -0.2990  0.0075  0.1073
  526SOL    HW1 1577   0.510   0.300   1.792  1.3682 -0.5789 -1.7465
  526SOL    HW2 1578   0.377   0.360   1.750  0.8519  0.6850  1.3618
  527SOL     OW 1579   2.363   2.702   0.629 -0.5967 -0.1176 -0.2969
  527SOL    HW1 1580   2.318   2.722   0.711 -0.0637 -0.9908  0.2188
  527SOL    HW2 1581   2.341   2.611   0.612 -0.9437  0.1427 -1.2928
  528SOL     OW 1582   0.541   0.312   1.430 -0.4488 -0.1202 -0.1935
  528SOL    HW1 1583   0.493   0.350   1.356 -0.1242  0.1088 -0.2860
  528SOL    HW2 1584   0.481   0.246   1.466 -1.1206  0.6456  0.1194
  529SOL     OW 1585   2.855   1.506   0.039 -0.1198  0.3418 -0.1499
  529SOL    HW1 1586   2.766   1.514   0.073 -0.0584  0.6198 -0.0553
  529SOL    HW2 1587   2.850   1.537  -0.051 -0.3462 -0.6828 -0.4997
  530SOL     OW 1588   1.887   2.568   0.842 -0.6785  0.0398 -0.1035
  530SOL    HW1 1589   1.972   2.541   0.807 -0.0058  0.2149  1.3363
  530SOL    HW2 1590   1.825   2.505   0.805  0.4259 -1.6596  0.7996
  531SOL     OW 1591   0.439   1.405   2.451 -0.0891  0.5799  0.1999
  531SOL    HW1 1592   0.399   1.380   2.534 -1.9183  2.7185  0.0661
  531SOL    HW2 1593   0.482   1.489   2.469 -0.5304  1.0835 -0.9808
  532SOL     OW 1594   1.781   1.971   2.448 -0.1618  0.5393 -0.1683
  532SOL    HW1 1595   1.856   1.999   2.501 -0.7064  0.9602  0.3970
  532SOL    HW2 1596   1.817   1.956   2.361  0.8880 -0.8256  0.4647
  533SOL     OW 1597   2.034   1.031   0.333  0.4503  0.1618  0.1834
  533SOL    HW1 1598   1.941   1.015   0.352  0.7646 -3.5661 -0.6996
  533SOL    HW2 1599   2.033   1.107   0.274 -2.2192 -0.6130 -0.9475
  534SOL     OW 1600   0.233   2.129   0.899  0.0309 -0.5261  0.4853
  534SOL    HW1 1601   0.165   2.183   0.860 -0.9721  0.2596  3.1089
  534SOL    HW2 1602   0.309   2.187   0.906  0.4738 -0.9080 -0.9419
  535SOL     OW 1603   2.699   1.699   1.023  0.0030 -0.0443  0.5247
  535SOL    HW1 1604   2.714   1.691   1.117 -0.8346  1.3036  0.8066
  535SOL    HW2 1605   2.710   1.610   0.989  1.2387 -0.3880  1.7439
  536SOL     OW 1606   0.343   1.132   1.886  0.0717  0.5736 -0.3750
  536SOL    HW1 1607   0.406   1.066   1.914  0.7840  1.3725 -0.0309
  536SOL    HW2 1608   0.393   1.190   1.828 -0.3268  1.2386 -0.0681
  537SOL     OW 1609   2.150   1.281   0.913 -0.2304 -0.1128  0.7809
  537SOL    HW1 1610   2.239   1.289   0.946  0.1430 -0.8110 -0.0303
  537SOL    HW2 1611   2.135   1.362   0.865 -0.2251  0.2274  1.3373
  538SOL     OW 1612   2.771   1.915   2.230 -0.2309 -0.0700  0.6449
  538SOL    HW1 1613   2.810   1.828   2.236 -0.0026 -0.2055 -1.6583
  538SOL    HW2 1614   2.815   1.966   2.298  2.0888 -0.9066 -0.1285
  539SOL     OW 1615   0.995   2.265   0.239 -0.0737  0.5716 -0.2980
  539SOL    HW1 1616   0.981   2.358   0.224 -0.2349  0.4338 -1.0415
  539SOL    HW2 1617   0.919   2.237   0.290 -0.8264  0.5259 -1.4199
  540SOL     OW 1618   1.002   1.826   1.927  0.4355  0.6141  0.9264
  540SOL    HW1 1619   1.011   1.732   1.945  1.1377  0.6997  1.0219
  540SOL    HW2 1620   0.909   1.844   1.942  0.6247  0.2987  2.6272
  541SOL     OW 1621   2.108   2.174   1.969 -0.5888 -0.5345  0.5851
  541SOL    HW1 1622   2.023   2.183   1.926 -0.3253  0.8006  0.2978
  541SOL    HW2 1623   2.088   2.135   2.054 -1.2932 -1.7360 -0.1011
  542SOL     OW 1624   1.890   1.472   2.228  0.1418 -0.1985  0.2186
  542SOL    HW1 1625   1.883   1.377   2.228 -0.8242 -0.1382  0.7019
  542SOL    HW2 1626   1.801   1.503   2.245 -0.0166  0.8387 -2.0680
  543SOL     OW 1627   1.741   1.910   1.549  0.1734 -0.1459 -0.2390
  543SOL    HW1 1628   1.775   1.836   1.499  1.0216  0.7965 -1.1042
  543SOL    HW2 1629   1.683   1.955   1.488  2.2224  1.7682 -0.9135
  544SOL     OW 1630   1.367   2.115   1.941  0.2883  0.3739 -0.0089
  544SOL    HW1 1631   1.400   2.151   2.023  0.1218 -1.3154  0.8459
  544SOL    HW2 1632   1.272   2.110   1.953  0.3373 -0.6810  0.0595
  545SOL     OW 1633   0.375   1.938   1.075  0.0203  0.1190 -0.2517
  545SOL    HW1 1634   0.360   1.989   1.155  0.5915 -2.1240  1.3643
  545SOL    HW2 1635   0.316   1.977   1.011 -2.0604  0.6754  1.8584
  546SOL     OW 1636   1.699   2.748   2.138  0.0209  0.2433  0.0531
  546SOL    HW1 1637   1.763   2.692   2.094  0.6621  1.1922 -0.2528
  546SOL    HW2 1638   1.616   2.730   2.094  0.2083 -0.4841 -0.0156
  547SOL     OW 1639   0.093   2.522   1.713 -0.2361 -0.0450  0.2034
  547SOL    HW1 1640   0.054   2.598   1.671  0.9422  1.2720  1.3572
  547SOL    HW2 1641   0.041   2.448   1.683  0.5481  0.7254 -3.5809
  548SOL     OW 1642   1.844   0.094   1.419 -0.8859  0.4469  0.4362
  548SOL    HW1 1643   1.763   0.134   1.451  0.7396  2.7556  2.0317
  548SOL    HW2 1644   1.884   0.055   1.496  0.4365  1.0934  0.1088
  549SOL     OW 1645   0.629   2.230   1.178 -0.3992  0.0997 -0.6981
  549SOL    HW1 1646   0.712   2.191   1.205  1.0012  1.7711 -2.3788
  549SOL    HW2 1647   0.647   2.324   1.171 -2.5317  0.5539 -0.8007
  550SOL     OW 1648   1.064   0.086   2.779  0.1686  0.0444 -0.0633
  550SOL    HW1 1649   1.154   0.062   2.758  0.0673 -1.8738  1.3631
  550SOL    HW2 1650   1.012   0.041   2.713  0.1466 -1.3075  0.8309
  551SOL     OW 1651   0.021   0.028   2.440 -0.0222 -0.0894 -0.0220
  551SOL    HW1 1652   0.060   0.105   2.481  0.1883  0.4753 -1.2422
  551SOL    HW2 1653   0.006   0.054   2.350 -0.1443 -1.4107 -0.4034
  552SOL     OW 1654   1.940   1.993   0.619 -0.4080  0.1493  0.1188
  552SOL    HW1 1655   1.993   1.967   0.694  1.0960 -0.2241 -1.0218
  552SOL    HW2 1656   1.888   1.916   0.598  1.5525 -0.8978 -1.1687
  553SOL     OW 1657   2.516   1.301   2.189  0.1452  0.1479  0.5150
  553SOL    HW1 1658   2.518   1.387   2.147  2.8279  0.8036  1.7401
  553SOL    HW2 1659   2.471   1.317   2.273 -2.8002 -0.5848 -0.7923
  554SOL     OW 1660   0.354   1.023   0.506 -0.3913  0.3193 -0.2116
  554SOL    HW1 1661   0.436   0.990   0.542 -0.7356 -1.0681 -0.6264
  554SOL    HW2 1662   0.381   1.072   0.428  0.2413  2.2533  1.1573
  555SOL     OW 1663   0.041   1.897   0.666  0.0805  0.5959  0.1425
  555SOL    HW1 1664   0.055   1.860   0.754  0.1111  0.4889  0.0929
  555SOL    HW2 1665  -0.035   1.955   0.677 -0.9652 -0.6741 -0.1111
  556SOL     OW 1666   1.593   1.486   0.783  0.6039  0.2181  0.3837
  556SOL    HW1 1667   1.524   1.421   0.795  0.1799  0.1454 -1.9551
  556SOL    HW2 1668   1.554   1.551   0.724  2.3101  0.5124 -0.4762
  557SOL     OW 1669   1.335   1.540   2.387 -0.0585 -0.0458 -0.6924
  557SOL    HW1 1670   1.337   1.595   2.309  0.9019  1.2786  0.2267
  557SOL    HW2 1671   1.389   1.587   2.451 -1.1558 -0.8927  0.9113
  558SOL     OW 1672   1.820   1.054   2.755  0.9004  0.1583  0.1975
  558SOL    HW1 1673   1.891   0.989   2.753  0.5727 -0.1960 -0.2479
  558SOL    HW2 1674   1.752   1.013   2.809  0.5643 -0.0084 -0.3459
  559SOL     OW 1675   2.173   1.979   0.865 -0.6570  0.7304  0.5584
  559SOL    HW1 1676   2.239   2.033   0.910 -0.4525  1.2321 -0.3304
  559SOL    HW2 1677   2.090   2.024   0.881 -0.5806  0.9231  0.4109
  560SOL     OW 1678   1.564   1.248   2.765  0.0370  0.2963 -0.0711
  560SOL    HW1 1679   1.507   1.319   2.793  0.9971  1.0769 -0.0402
  560SOL    HW2 1680   1.639   1.292   2.725  0.8307 -0.6900  0.3035
  561SOL     OW 1681   1.742   0.002   2.835 -0.0641 -0.1128  0.3987
  561SOL    HW1 1682   1.793  -0.060   2.783  0.8459 -0.1171  1.2535
  561SOL    HW2 1683   1.767  -0.018   2.926 -2.0631 -0.5130  0.8926
  562SOL     OW 1684   1.505   1.933   0.453 -0.0715 -0.0089  0.2231
  562SOL    HW1 1685   1.549   1.863   0.404  1.1938  0.8277  0.1117
  562SOL    HW2 1686   1.518   1.910   0.545  0.3957  0.1037  0.1879
  563SOL     OW 1687   0.716   1.961   1.959  0.3155 -0.0566 -0.7907
  563SOL    HW1 1688   0.635   1.928   1.996  0.1739  0.7458 -0.3623
  563SOL    HW2 1689   0.731   2.044   2.004  1.0535  0.0978 -1.2994
  564SOL     OW 1690   1.161   1.546   1.828  0.4574 -0.1147 -0.3697
  564SOL    HW1 1691   1.116   1.538   1.912  1.0113  2.4450  0.2572
  564SOL    HW2 1692   1.254   1.548   1.851  0.6277  0.2079 -1.0674
  565SOL     OW 1693   1.684   0.734   1.017 -0.1739 -0.1789 -0.0136
  565SOL    HW1 1694   1.759   0.681   0.991 -0.5572 -0.2358 -1.0688
  565SOL    HW2 1695   1.719   0.797   1.080  0.0468 -2.4864  2.3474
  566SOL     OW 1696   1.277   0.896   0.921  0.0418 -0.2441 -0.2543
  566SOL    HW1 1697   1.350   0.897   0.982  0.0415 -2.3856 -0.1473
  566SOL    HW2 1698   1.201   0.877   0.975 -0.1275 -1.0303 -0.7512
  567SOL     OW 1699   2.673   1.058   0.372 -0.0860 -0.3879  0.3001
  567SOL    HW1 1700   2.763   1.067   0.342  0.5737 -0.6693  2.0413
  567SOL    HW2 1701   2.666   0.966   0.400 -0.5235 -0.0596  1.3144
  568SOL     OW 1702   2.121   2.431   1.437 -0.4562 -0.1103 -0.7351
  568SOL    HW1 1703   2.103   2.410   1.345  0.5846  2.7794 -1.7349
  568SOL    HW2 1704   2.216   2.423   1.445 -0.5794 -0.6590  0.1788
  569SOL     OW 1705   1.328   1.461   1.356  0.1100  0.1417 -0.1343
  569SOL    HW1 1706   1.246   1.445   1.310 -0.4125  0.0189  0.8219
  569SOL    HW2 1707   1.307   1.449   1.448  1.3387 -0.5048  0.0910
  570SOL     OW 1708   1.399   0.134   0.422  0.6563 -0.2625  0.2490
  570SOL    HW1 1709   1.438   0.154   0.507  0.1501  1.1474  0.1702
  570SOL    HW2 1710   1.310   0.104   0.443  0.6666 -0.3027  0.2366
  571SOL     OW 1711   0.108   0.576   0.999 -0.4399  0.3843 -0.1320
  571SOL    HW1 1712   0.091   0.668   0.981 -0.9967  0.4879  0.8696
  571SOL    HW2 1713   0.141   0.541   0.916  0.2739  1.5955 -0.3831
  572SOL     OW 1714   0.054   1.452   2.082 -0.3244 -0.0448 -0.0812
  572SOL    HW1 1715  -0.002   1.382   2.116  0.2675 -0.8848 -0.7922
  572SOL    HW2 1716   0.119   1.466   2.151 -1.4985  1.0865  0.8450
  573SOL     OW 1717   0.169   0.091   1.329 -0.3030 -0.1108 -0.0561
  573SOL    HW1 1718   0.177  -0.004   1.314  0.4800 -0.1965  0.8487
  573SOL    HW2 1719   0.173   0.129   1.241  1.0784 -0.8111 -0.3311
  574SOL     OW 1720   1.748   0.920   1.213 -0.1513  0.5291  0.3418
  574SOL    HW1 1721   1.838   0.895   1.235  0.5214  1.3206 -1.2993
  574SOL    HW2 1722   1.701   0.916   1.296  1.3239 -0.1928  1.1915
  575SOL     OW 1723   1.071   1.373   1.279 -0.4175 -0.4664  0.3690
  575SOL    HW1 1724   1.018   1.404   1.352  0.0415 -1.2071  1.0236
  575SOL    HW2 1725   1.023   1.402   1.201  0.3453  2.5477  0.8983
  576SOL     OW 1726   0.925   2.100   0.572 -0.4896 -0.2291  0.4209
  576SOL    HW1 1727   1.006   2.061   0.539 -0.5773  0.8565 -1.2106
  576SOL    HW2 1728   0.861   2.088   0.501 -1.3167  0.2845  1.0505
  577SOL     OW 1729   1.950   1.143   1.995  0.2508 -0.2482 -0.4067
  577SOL    HW1 1730   1.880   1.111   2.051 -1.2077  0.5164 -1.7210
  577SOL    HW2 1731   2.023   1.159   2.055 -0.2894 -2.1159  0.8477
  578SOL     OW 1732   0.924   1.054   2.838  0.2395  0.3882 -0.1214
  578SOL    HW1 1733   0.897   1.070   2.929  1.1787  2.3540 -0.1327
  578SOL    HW2 1734   1.019   1.047   2.842  0.5695  2.9502 -1.1734
  579SOL     OW 1735   2.093   1.339   0.306 -0.0581  0.1160 -0.5754
  579SOL    HW1 1736   2.168   1.389   0.275  0.7959 -0.6244  0.2285
  579SOL    HW2 1737   2.118   1.310   0.394 -1.2389 -0.2392 -0.3381
  580SOL     OW 1738   1.405   1.057   2.612 -0.4750  0.4348 -0.5930
  580SOL    HW1 1739   1.476   0.999   2.586 -0.6654 -0.6610  1.1801
  580SOL    HW2 1740   1.412   1.131   2.553  1.5827 -0.0544 -1.0371
  581SOL     OW 1741   0.697   2.669   2.298  0.1728  0.0896 -0.0741
  581SOL    HW1 1742   0.662   2.758   2.293  0.7336  0.2810 -0.8003
  581SOL    HW2 1743   0.643   2.618   2.238  1.7818  0.6319 -2.1115
  582SOL     OW 1744   0.543   0.635   0.252 -0.1332 -0.2347 -0.8030
  582SOL    HW1 1745   0.564   0.728   0.259 -1.3062  0.1113 -1.6738
  582SOL    HW2 1746   0.628   0.593   0.236  0.6657  0.4449  1.2177
  583SOL     OW 1747   2.371   2.510   2.145  0.3953 -0.7079 -0.2495
  583SOL    HW1 1748   2.338   2.471   2.226 -0.2667 -0.5535 -0.4302
  583SOL    HW2 1749   2.308   2.580   2.126  1.7411  0.6932  0.2670
  584SOL     OW 1750   1.089   2.196   1.730 -0.4166  0.2152 -0.3246
  584SOL    HW1 1751   1.098   2.291   1.732  2.5972  0.0196  0.3601
  584SOL    HW2 1752   1.061   2.172   1.818 -0.7717  0.4254 -0.3779
  585SOL     OW 1753   2.303   1.817   0.677  0.8747  0.0010  0.6738
  585SOL    HW1 1754   2.248   1.876   0.729  0.1101 -0.5131  0.4607
  585SOL    HW2 1755   2.382   1.806   0.730  0.0689 -0.6115  1.8002
  586SOL     OW 1756   2.758   0.500   1.626 -0.1479  0.5879  0.0427
  586SOL    HW1 1757   2.690   0.531   1.566  0.6584  1.5349 -0.4228
  586SOL    HW2 1758   2.812   0.441   1.573  0.4882  1.3229 -0.1438
  587SOL     OW 1759   0.055   1.175   0.461 -0.2966  0.2019 -0.2905
  587SOL    HW1 1760   0.071   1.204   0.550  1.6088  1.0638 -0.8547
  587SOL    HW2 1761  -0.018   1.229   0.431 -0.9526 -0.0962  0.7156
  588SOL     OW 1762   1.647   0.250   0.921 -0.8058  0.0125  0.6278
  588SOL    HW1 1763   1.675   0.335   0.956  1.2962  0.5802 -2.0622
  588SOL    HW2 1764   1.678   0.186   0.985  1.2352  1.0865  0.8150
  589SOL     OW 1765   0.812   1.324   1.752  0.7015 -1.0863 -0.4774
  589SOL    HW1 1766   0.859   1.288   1.828 -0.4683  0.4888  1.0651
  589SOL    HW2 1767   0.853   1.409   1.737 -0.5684 -0.3863 -0.1165
  590SOL     OW 1768   0.387   0.118   0.116 -0.0864  0.7034  0.6240
  590SOL    HW1 1769   0.352   0.094   0.202 -1.3915  3.9335  1.1201
  590SOL    HW2 1770   0.476   0.150   0.134  0.9255 -1.6602  0.2170
  591SOL     OW 1771   0.559   0.919   1.215 -0.2472 -0.3595 -0.0261
  591SOL    HW1 1772   0.498   0.986   1.246  0.6197 -0.6691  2.6065
  591SOL    HW2 1773   0.627   0.968   1.169 -1.2889  0.1932 -1.0369
  592SOL     OW 1774   1.296   1.115   0.485  0.0485  0.0786  0.2360
  592SOL    HW1 1775   1.295   1.211   0.485 -2.8881  0.1367 -0.3735
  592SOL    HW2 1776   1.333   1.091   0.400  2.5858  0.5475  1.1176
  593SOL     OW 1777   1.936   0.835   1.686  0.3347 -0.4424  0.4677
  593SOL    HW1 1778   1.999   0.861   1.619  0.2639 -1.9989 -0.2494
  593SOL    HW2 1779   1.964   0.747   1.711  0.3550  0.0909  2.4996
  594SOL     OW 1780   1.971   2.941   0.685  0.0670  0.3026  0.2825
  594SOL    HW1 1781   2.022   2.916   0.607 -0.2833  1.7487 -0.4405
  594SOL    HW2 1782   1.880   2.921   0.661  0.0180  0.1813  0.5634
  595SOL     OW 1783   1.925   2.031   1.730  0.3539  0.3339 -0.0059
  595SOL    HW1 1784   1.915   2.122   1.759  1.9667  0.0258  1.6644
  595SOL    HW2 1785   1.835   2.002   1.714 -0.1278  2.7765 -2.6225
  596SOL     OW 1786   0.166   0.879   0.325 -0.1252 -0.5877 -0.4916
  596SOL    HW1 1787   0.124   0.939   0.387 -1.6024 -1.1297 -0.9305
  596SOL    HW2 1788   0.254   0.865   0.361 -0.6911 -0.3080  1.0804
  597SOL     OW 1789   1.254   0.756   0.512 -0.1013  0.7377 -0.8886
  597SOL    HW1 1790   1.162   0.765   0.488  0.3613  0.9705 -2.7176
  597SOL    HW2 1791   1.260   0.669   0.551 -1.0853  0.6916 -0.8139
  598SOL     OW 1792   0.304   0.382   1.189  0.5554 -0.2859  0.4923
  598SOL    HW1 1793   0.235   0.340   1.137  0.1715 -0.6670  1.2850
  598SOL    HW2 1794   0.294   0.475   1.171 -0.5960 -0.2729  1.0874
  599SOL     OW 1795   2.472   1.668   0.133 -0.2569 -0.2454 -0.2903
  599SOL    HW1 1796   2.428   1.590   0.168 -1.3231  0.6384  0.3849
  599SOL    HW2 1797   2.522   1.702   0.207 -1.3579  0.7956  0.0165
  600SOL     OW 1798   1.881   0.485   2.631  0.0419 -0.1429  0.6477
  600SOL    HW1 1799   1.854   0.540   2.705  0.6451 -0.1756  0.8993
  600SOL    HW2 1800   1.954   0.434   2.665  1.2485  0.8519 -0.3774
  601SOL     OW 1801   1.904   2.795   0.350  0.1945  0.4610 -0.2471
  601SOL    HW1 1802   1.945   2.710   0.368 -0.5872  0.2270  0.4563
  601SOL    HW2 1803   1.967   2.859   0.382 -0.4750  0.0872  1.9316
  602SOL     OW 1804   2.712   1.704   1.589  0.0923  0.3463 -0.2541
  602SOL    HW1 1805   2.621   1.675   1.596  0.6542 -1.5421 -0.0566
  602SOL    HW2 1806   2.710   1.797   1.611 -1.8927  0.5382 -1.0782
  603SOL     OW 1807   2.807   0.193   1.149  0.0115 -0.4479 -0.2324
  603SOL    HW1 1808   2.737   0.255   1.169 -0.0366 -0.1881 -1.1859
  603SOL    HW2 1809   2.782   0.113   1.195 -0.1616  0.0875  0.6193
  604SOL     OW 1810   2.513   0.265   0.933 -0.2692 -0.4139 -0.2219
  604SOL    HW1 1811   2.481   0.239   0.847 -2.4465 -2.6658  1.1395
  604SOL    HW2 1812   2.439   0.311   0.973  0.7551  0.7287  0.4245
  605SOL     OW 1813   2.933   1.167   2.437  0.1524  0.3090  0.0983
  605SOL    HW1 1814   3.016   1.145   2.396  0.0610  1.5623 -0.8154
  605SOL    HW2 1815   2.885   1.215   2.369 -1.4392 -0.6301  0.5038
  606SOL     OW 1816   1.480   0.144   1.968 -0.2375 -0.8199  0.4654
  606SOL    HW1 1817   1.459   0.082   2.038 -1.3734 -0.0008  0.8689
  606SOL    HW2 1818   1.442   0.105   1.890  1.9865 -2.2879  0.0482
  607SOL     OW 1819   2.909   0.370   0.735 -0.7781 -0.5523  0.4408
  607SOL    HW1 1820   2.978   0.436   0.726 -0.1723 -1.0159  1.4710
  607SOL    HW2 1821   2.841   0.398   0.675 -0.4154  0.8713  0.6540
  608SOL     OW 1822   0.419   1.385   0.856  0.0191 -0.4359 -0.0177
  608SOL    HW1 1823   0.442   1.406   0.946 -0.3261  0.1530 -0.0609
  608SOL    HW2 1824   0.478   1.314   0.831  0.4333 -0.2752  0.5119
  609SOL     OW 1825   2.924   1.611   1.749 -0.0262  0.9420  0.0857
  609SOL    HW1 1826   2.905   1.646   1.836  0.3387  0.2542  0.4494
  609SOL    HW2 1827   2.841   1.618   1.702 -0.7697 -0.4714  1.1156
  610SOL     OW 1828   2.745   2.015   0.466  0.0959 -0.6355  0.2494
  610SOL    HW1 1829   2.728   2.007   0.373  2.2603 -0.7773 -0.2037
  610SOL    HW2 1830   2.835   2.048   0.471 -0.4583  0.7591  2.2788
  611SOL     OW 1831   2.830   0.137   1.708 -0.4059  0.3510  0.9779
  611SOL    HW1 1832   2.783   0.090   1.638  0.0137  1.7741 -0.3083
  611SOL    HW2 1833   2.762   0.180   1.758 -0.5956  1.6538 -0.3264
  612SOL     OW 1834   0.181   1.194   1.438  0.2843  0.0602 -0.1217
  612SOL    HW1 1835   0.193   1.283   1.471  0.2694 -0.5031  1.4750
  612SOL    HW2 1836   0.107   1.201   1.378 -0.5105  0.9193  0.9137
  613SOL     OW 1837   2.946   2.202   0.109 -0.4188 -0.2003 -0.2568
  613SOL    HW1 1838   2.974   2.212   0.200  1.6417 -0.2598 -0.8327
  613SOL    HW2 1839   2.856   2.235   0.108 -0.6632 -0.6524  1.8789
  614SOL     OW 1840   1.505   2.949   0.914 -0.7500  0.4763  0.2828
  614SOL    HW1 1841   1.495   2.862   0.952 -0.0743  0.8271  1.3025
  614SOL    HW2 1842   1.470   3.008   0.980 -0.3492  1.0480 -0.0099
  615SOL     OW 1843   2.344   0.292   0.248  0.0195  0.0094  0.4273
  615SOL    HW1 1844   2.374   0.259   0.332 -0.0729  1.6898  1.1664
  615SOL    HW2 1845   2.414   0.268   0.187 -0.2413 -1.8517  0.7956
  616SOL     OW 1846   2.571   1.006   1.247 -0.4365  0.2273 -0.1090
  616SOL    HW1 1847   2.650   0.955   1.263  0.3688  1.2977 -0.5911
  616SOL    HW2 1848   2.511   0.944   1.204 -0.3644 -0.9444  1.4009
  617SOL     OW 1849   1.784   0.438   1.494 -0.1543  0.1456  0.0384
  617SOL    HW1 1850   1.731   0.517   1.510 -1.9529 -1.1236  0.6686
  617SOL    HW2 1851   1.776   0.422   1.400  0.5679  0.9215 -0.1685
  618SOL     OW 1852   1.004   0.628   2.518  0.2579  0.1374 -0.2579
  618SOL    HW1 1853   1.030   0.699   2.578 -0.7241 -0.1552  0.5392
  618SOL    HW2 1854   0.923   0.594   2.555 -1.4156  1.1221 -2.7410
  619SOL     OW 1855   2.376   1.903   1.103  0.3598 -0.1656  0.4352
  619SOL    HW1 1856   2.442   1.966   1.132 -0.4367  0.8297  0.1496
  619SOL    HW2 1857   2.306   1.909   1.169  0.2177 -0.6632  0.3374
  620SOL     OW 1858   0.736   1.538   1.971 -0.1371 -0.0690  0.5481
  620SOL    HW1 1859   0.678   1.468   2.003 -0.2488 -1.5554 -2.5290
  620SOL    HW2 1860   0.729   1.533   1.876  0.9353  3.3097  0.1593
  621SOL     OW 1861   2.573   1.366   0.425 -0.0329 -0.2686 -0.4472
  621SOL    HW1 1862   2.537   1.298   0.369 -2.4050  1.5436 -1.2860
  621SOL    HW2 1863   2.597   1.321   0.506 -1.4659 -2.1057 -0.9891
  622SOL     OW 1864   0.793   2.439   0.959  0.2617  0.4052 -0.6035
  622SOL    HW1 1865   0.806   2.386   0.881 -1.0898 -0.3714 -0.3292
  622SOL    HW2 1866   0.732   2.508   0.931  0.9078  0.9889 -0.5960
  623SOL     OW 1867   0.164   0.544   0.721  0.0404  0.3542 -0.3405
  623SOL    HW1 1868   0.248   0.555   0.765 -0.0980  0.4093 -0.0913
  623SOL    HW2 1869   0.169   0.604   0.646 -0.4045  1.5935  0.5843
  624SOL     OW 1870   0.687   0.912   0.876 -0.4637  0.1264  0.3149
  624SOL    HW1 1871   0.663   0.828   0.834 -0.8821  0.6049 -0.4351
  624SOL    HW2 1872   0.735   0.886   0.954 -0.7199 -0.8263  0.1816
  625SOL     OW 1873   2.760   0.815   2.400 -0.2797  0.2643  0.3065
  625SOL    HW1 1874   2.753   0.746   2.335  0.4393 -0.4320  0.9482
  625SOL    HW2 1875   2.690   0.797   2.463 -0.7478  0.7286 -0.0758
  626SOL     OW 1876   0.117   0.836   0.951 -0.4649  0.0398  0.0478
  626SOL    HW1 1877   0.073   0.874   0.875 -1.9485  0.0794  0.8839
  626SOL    HW2 1878   0.190   0.895   0.968  0.7372 -0.6864 -2.1146
  627SOL     OW 1879   1.171   2.710   0.485  0.1426 -0.9227 -0.4084
  627SOL    HW1 1880   1.250   2.746   0.526  0.3427 -1.1950 -0.5522
  627SOL    HW2 1881   1.153   2.630   0.535  0.1719 -1.0572 -0.6138
  628SOL     OW 1882   0.638   1.243   2.277  0.5298 -0.5472 -0.2282
  628SOL    HW1 1883   0.571   1.298   2.317  1.3404  0.6438 -0.4586
  628SOL    HW2 1884   0.612   1.154   2.300 -0.9012 -0.0955  0.0268
  629SOL     OW 1885   1.867   0.006   2.501  0.1148 -0.1151  0.1084
  629SOL    HW1 1886   1.946   0.032   2.548  0.5082  1.2584 -1.2343
  629SOL    HW2 1887   1.892   0.008   2.409 -1.5504  0.7127 -0.3682
  630SOL     OW 1888   0.301   2.155   0.594  0.0317  0.1445 -0.6654
  630SOL    HW1 1889   0.292   2.127   0.685  1.6017  0.2964 -0.4380
  630SOL    HW2 1890   0.226   2.116   0.550 -1.6706  1.3617  0.9645
  631SOL     OW 1891   2.004   0.740   0.578  0.5538 -0.1977  0.2692
  631SOL    HW1 1892   2.028   0.831   0.561 -0.8156  0.2152  0.4953
  631SOL    HW2 1893   1.911   0.742   0.597  0.4645 -1.6791  0.1130
  632SOL     OW 1894   1.164   2.736   2.586 -0.0299 -0.0326  0.1755
  632SOL    HW1 1895   1.073   2.707   2.593  0.6776 -2.4989 -0.0477
  632SOL    HW2 1896   1.214   2.670   2.634  1.6940  1.0853  0.0060
  633SOL     OW 1897   1.529   1.001   0.580  0.1279 -0.0665  0.2145
  633SOL    HW1 1898   1.503   0.927   0.634  0.0210 -0.5763 -0.5132
  633SOL    HW2 1899   1.448   1.050   0.566 -0.1724 -0.8150 -0.7890
  634SOL     OW 1900   2.340   0.027   0.776  0.1532  0.7764  0.0031
  634SOL    HW1 1901   2.292   0.089   0.720  0.2174  0.0813 -0.8393
  634SOL    HW2 1902   2.275  -0.041   0.797  0.0247  1.2178  1.0899
  635SOL     OW 1903   1.979   2.553   1.117  0.1741  0.0098  0.5269
  635SOL    HW1 1904   2.009   2.635   1.079 -0.4157  0.4880  1.0681
  635SOL    HW2 1905   1.919   2.517   1.051  2.6588 -1.4957 -1.0521
  636SOL     OW 1906   1.994   2.572   2.555  0.0102  0.3055  0.6052
  636SOL    HW1 1907   1.948   2.488   2.563  1.0371 -0.5389 -1.6182
  636SOL    HW2 1908   1.952   2.615   2.480 -1.6051  2.6032  2.6519
  637SOL     OW 1909   0.094   2.022   1.801 -0.5634  0.0809 -0.6156
  637SOL    HW1 1910   0.050   2.000   1.883 -0.5607  0.7910 -0.4172
  637SOL    HW2 1911   0.102   1.939   1.755 -1.2011 -0.2139 -0.2066
  638SOL     OW 1912   2.620   1.678   0.392  0.2222  0.4292  0.1227
  638SOL    HW1 1913   2.674   1.623   0.449  0.8604  0.7952 -0.1199
  638SOL    HW2 1914   2.614   1.762   0.437  2.6546  1.5120 -1.3365
  639SOL     OW 1915   1.149   1.763   0.684 -0.2526 -0.1946 -0.3138
  639SOL    HW1 1916   1.086   1.692   0.669 -0.2758  0.0922 -1.7606
  639SOL    HW2 1917   1.151   1.810   0.601  1.7686 -0.1011 -0.2456
  640SOL     OW 1918   2.670   1.987   0.211  0.1861  0.4818  0.5677
  640SOL    HW1 1919   2.742   1.965   0.151 -0.5966  0.6526 -0.4680
  640SOL    HW2 1920   2.593   1.992   0.154 -0.7127 -0.0457  1.7013
  641SOL     OW 1921   2.645   2.395   1.934 -0.1644  0.6766 -0.1166
  641SOL    HW1 1922   2.588   2.439   1.871  0.4702 -0.4208 -1.5108
  641SOL    HW2 1923   2.586   2.340   1.986 -0.5835  0.8882 -0.3622
  642SOL     OW 1924   1.699   2.502   0.482 -0.1752  0.4546  0.3810
  642SOL    HW1 1925   1.693   2.594   0.456 -1.0962  0.3167  0.0499
  642SOL    HW2 1926   1.706   2.505   0.577  0.0916  0.8803  0.3506
  643SOL     OW 1927   0.133   1.862   2.670  0.3089 -0.5446  0.0791
  643SOL    HW1 1928   0.097   1.781   2.706  1.2813 -2.1232 -2.2270
  643SOL    HW2 1929   0.227   1.857   2.689  0.5903 -0.6708 -1.2149
  644SOL     OW 1930   1.582   0.797   0.049 -0.4477  0.3359  0.1669
  644SOL    HW1 1931   1.577   0.821   0.141 -1.2630  0.0168  0.2177
  644SOL    HW2 1932   1.546   0.872   0.002 -3.2265 -0.7427  0.3396
  645SOL     OW 1933   2.294   0.728   0.577 -0.0363 -0.4797  0.2031
  645SOL    HW1 1934   2.205   0.694   0.572  0.2918 -1.1515 -1.7972
  645SOL    HW2 1935   2.283   0.822   0.592 -1.0654 -0.5530 -0.0515
  646SOL     OW 1936   2.710   1.376   2.401  0.1139  0.1205 -0.0770
  646SOL    HW1 1937   2.803   1.393   2.417  0.1475 -1.1963  1.3738
  646SOL    HW2 1938   2.706   1.354   2.308  1.1954  0.5480 -0.2465
  647SOL     OW 1939   1.174   2.859   1.337  0.3862  0.2825 -0.1929
  647SOL    HW1 1940   1.148   2.821   1.421  0.6443  0.7137  0.0879
  647SOL    HW2 1941   1.190   2.783   1.280 -0.1100 -0.0053  0.0445
  648SOL     OW 1942   1.039   2.636   2.326  0.0237 -0.3976 -0.0533
  648SOL    HW1 1943   1.116   2.685   2.355 -1.7071  1.3319  1.9647
  648SOL    HW2 1944   1.001   2.690   2.257 -0.1999 -0.4643  0.0166
  649SOL     OW 1945   1.357   2.139   1.591  0.1755  0.1797 -0.3701
  649SOL    HW1 1946   1.269   2.146   1.628 -0.5766  0.5007 -2.1302
  649SOL    HW2 1947   1.395   2.226   1.602  1.3636 -0.6103  2.8148
  650SOL     OW 1948   2.466   1.113   2.562 -0.1381 -0.5445  0.5316
  650SOL    HW1 1949   2.544   1.059   2.573  0.3057  0.0442  0.2903
  650SOL    HW2 1950   2.484   1.192   2.613 -1.2132 -1.0386  1.7711
  651SOL     OW 1951   2.304   0.365   1.105  0.3106  0.0976 -0.2704
  651SOL    HW1 1952   2.213   0.340   1.091  0.9648 -1.5300 -2.0530
  651SOL    HW2 1953   2.300   0.436   1.169 -2.1528 -0.2668  0.0686
  652SOL     OW 1954   2.158   1.151   2.178 -0.2400  0.1224 -0.1006
  652SOL    HW1 1955   2.139   1.058   2.178 -0.9158  0.2601  0.1253
  652SOL    HW2 1956   2.161   1.175   2.271 -2.0036  0.7117 -0.1666
  653SOL     OW 1957   2.169   0.558   1.513 -0.4269 -0.3872  0.2895
  653SOL    HW1 1958   2.124   0.474   1.523  0.5092 -0.9474 -0.0904
  653SOL    HW2 1959   2.174   0.594   1.601 -1.3955 -0.4229  0.3699
  654SOL     OW 1960   2.161   0.644   1.046 -0.7951 -0.1642 -0.2407
  654SOL    HW1 1961   2.078   0.666   1.004 -0.0591  0.7414 -1.2944
  654SOL    HW2 1962   2.145   0.658   1.140 -1.3767  1.6721 -0.5709
  655SOL     OW 1963   0.007   0.926   2.793 -0.1340  0.3202 -0.6326
  655SOL    HW1 1964   0.068   0.950   2.862  0.7167  1.3166 -1.6997
  655SOL    HW2 1965   0.031   0.836   2.770  0.8593  0.6583 -0.9576
  656SOL     OW 1966   2.750   0.148   2.910 -0.1510 -0.8181 -0.3914
  656SOL    HW1 1967   2.790   0.065   2.884  0.7570 -0.2172 -0.9610
  656SOL    HW2 1968   2.807   0.181   2.980 -0.0546 -0.3038 -0.7088
  657SOL     OW 1969   2.241   2.014   0.058  0.2171  0.1971 -0.0072
  657SOL    HW1 1970   2.208   2.093   0.100  1.0896  0.4135  0.3136
  657SOL    HW2 1971   2.237   1.947   0.127 -0.8262 -0.1291 -0.3747
  658SOL     OW 1972   2.125   2.816   2.837  0.3380  0.2072  0.0891
  658SOL    HW1 1973   2.127   2.802   2.931  2.0087 -3.5397 -0.3229
  658SOL    HW2 1974   2.035   2.797   2.811 -0.5947  2.9412  0.9895
  659SOL     OW 1975   1.625   2.105   2.957  0.5487  0.0099  0.1815
  659SOL    HW1 1976   1.600   2.014   2.940  0.7112  0.1573 -0.9325
  659SOL    HW2 1977   1.543   2.154   2.954  0.3948 -0.1539  1.2840
  660SOL     OW 1978   2.924   2.900   2.008 -0.6342 -0.4811  0.9901
  660SOL    HW1 1979   2.852   2.963   2.002  0.1580  0.4845  1.2751
  660SOL    HW2 1980   2.891   2.831   2.065 -1.1225  0.2891  1.6746
  661SOL     OW 1981   2.564   0.648   0.701 -0.3100 -0.6294  0.2055
  661SOL    HW1 1982   2.636   0.625   0.760 -1.6674 -2.6462  1.1886
  661SOL    HW2 1983   2.486   0.644   0.756 -1.5503 -1.8265 -1.5360
  662SOL     OW 1984   0.138   1.864   2.089  0.1377  0.1449  0.0324
  662SOL    HW1 1985   0.054   1.827   2.059  0.8164 -2.2189  0.8577
  662SOL    HW2 1986   0.188   1.789   2.118  2.2213  1.6247  0.4662
  663SOL     OW 1987   2.694   0.697   2.740  0.2070 -0.2696 -0.3973
  663SOL    HW1 1988   2.773   0.751   2.735 -0.0401  0.0260 -1.1524
  663SOL    HW2 1989   2.724   0.608   2.719 -0.2510  0.4022 -4.6340
  664SOL     OW 1990   0.988   0.144   1.976 -0.0632  0.4875  0.4629
  664SOL    HW1 1991   1.054   0.114   2.038 -1.0971 -2.6095  0.2544
  664SOL    HW2 1992   0.905   0.119   2.016 -0.8216 -0.3013 -1.4710
  665SOL     OW 1993   0.437   2.487   1.123  0.0300  0.0941  0.2399
  665SOL    HW1 1994   0.501   2.501   1.193 -0.5879 -0.2872  0.9060
  665SOL    HW2 1995   0.453   2.397   1.094 -0.1913  0.0024  0.3992
  666SOL     OW 1996   2.550   1.154   0.031  0.0115  0.4713 -0.0520
  666SOL    HW1 1997   2.644   1.138   0.040 -0.0051  0.4758  0.1288
  666SOL    HW2 1998   2.517   1.075  -0.011  0.1571  0.6313 -0.4720
  667SOL     OW 1999   0.489   1.802   1.998 -0.1599  0.2992 -0.2175
  667SOL    HW1 2000   0.434   1.752   2.059  0.4128  1.9939  1.7727
  667SOL    HW2 2001   0.434   1.874   1.969  0.4581  1.0507  0.4587
  668SOL     OW 2002   0.439   1.829   2.321  0.4451  0.4323  0.0374
  668SOL    HW1 2003   0.506   1.898   2.319 -0.9655  1.8668  0.4234
  668SOL    HW2 2004   0.482   1.753   2.283  1.9421  1.6278 -0.7758
  669SOL     OW 2005   2.500   2.039   2.946 -0.0874  0.3954  0.1147
  669SOL    HW1 2006   2.405   2.046   2.956 -0.0612  0.7509  0.1519
  669SOL    HW2 2007   2.513   1.989   2.865 -0.3180  1.7816 -0.8231
  670SOL     OW 2008   2.491   0.768   1.984 -0.3592 -0.0288 -0.3981
  670SOL    HW1 2009   2.503   0.846   2.038  3.0875 -1.5602  1.3317
  670SOL    HW2 2010   2.521   0.794   1.897 -0.4192  0.8967 -0.1471
  671SOL     OW 2011   2.599   2.029   0.688  0.3383 -0.1881 -0.6376
  671SOL    HW1 2012   2.625   1.940   0.712  3.5149  0.4549 -1.2410
  671SOL    HW2 2013   2.645   2.046   0.606 -0.5051  1.9071 -0.7445
  672SOL     OW 2014   0.214   0.462   2.561 -0.4556  0.1817  0.5219
  672SOL    HW1 2015   0.210   0.449   2.466 -1.1381 -0.6431  0.6433
  672SOL    HW2 2016   0.303   0.436   2.585  0.9089  3.6420 -0.2886
  673SOL     OW 2017   0.914   0.976   0.676 -0.2136  0.1446 -0.3652
  673SOL    HW1 2018   0.885   0.908   0.737 -2.3855  2.1821  1.0441
  673SOL    HW2 2019   0.946   1.047   0.731 -0.1280  1.1810 -1.6856
  674SOL     OW 2020   0.247   1.779   0.508 -0.1229  0.3936 -0.1423
  674SOL    HW1 2021   0.201   1.717   0.452 -0.8354  1.1029 -0.3588
  674SOL    HW2 2022   0.179   1.814   0.566  0.3935  0.5028  0.4115
  675SOL     OW 2023   2.449   0.595   1.196  0.1931  0.2879 -0.1330
  675SOL    HW1 2024   2.453   0.577   1.290 -0.6090  0.5542 -0.0356
  675SOL    HW2 2025   2.419   0.686   1.190 -1.6453 -0.2970 -0.6307
  676SOL     OW 2026   2.022   0.923   1.301  0.1828  0.4444 -0.3541
  676SOL    HW1 2027   2.068   0.960   1.226 -0.5320  1.4735 -0.3045
  676SOL    HW2 2028   2.004   0.998   1.357  1.0912 -0.3635  1.0815
  677SOL     OW 2029   0.914   1.922   2.666 -0.2644  0.0798 -0.3735
  677SOL    HW1 2030   0.974   1.996   2.676 -0.9368  0.5976 -0.1072
  677SOL    HW2 2031   0.851   1.951   2.599 -0.7672 -0.0946  0.0214
  678SOL     OW 2032   2.546   1.180   1.871  0.2766 -0.0040 -0.2716
  678SOL    HW1 2033   2.575   1.240   1.803  0.6332 -0.4230 -0.4895
  678SOL    HW2 2034   2.531   1.236   1.947 -0.2618  0.4831 -0.7306
  679SOL     OW 2035   1.815   0.593   1.857  0.8140 -0.0642  0.2971
  679SOL    HW1 2036   1.865   0.521   1.820  1.0920  0.3374 -0.1240
  679SOL    HW2 2037   1.801   0.569   1.948  0.9642 -0.6134  0.1778
  680SOL     OW 2038   2.611   0.765   0.450 -0.3092  0.5924 -0.0771
  680SOL    HW1 2039   2.683   0.702   0.441 -0.2310  0.5860  0.5587
  680SOL    HW2 2040   2.580   0.753   0.540 -1.8733 -0.2124 -0.6942
  681SOL     OW 2041   2.135   2.923   0.465  0.3249  0.4603 -0.4806
  681SOL    HW1 2042   2.211   2.868   0.484 -0.0092  0.0198 -0.4289
  681SOL    HW2 2043   2.171   3.012   0.461  0.6277  0.4349  0.9495
  682SOL     OW 2044   2.035   0.923   2.439  0.1740 -0.0453 -0.1286
  682SOL    HW1 2045   2.056   0.901   2.348  1.3366 -1.2641  0.4112
  682SOL    HW2 2046   2.045   0.841   2.486 -0.2246  0.6213  1.1543
  683SOL     OW 2047   0.232   0.777   2.120 -0.1673 -0.0501 -0.3428
  683SOL    HW1 2048   0.178   0.836   2.067 -1.3947 -0.4817  0.3728
  683SOL    HW2 2049   0.233   0.695   2.072  0.4245  0.1524 -0.6837
  684SOL     OW 2050   2.813   0.426   2.698 -0.3290  0.2832 -0.1858
  684SOL    HW1 2051   2.772   0.405   2.614  1.5934 -0.9116 -0.8731
  684SOL    HW2 2052   2.885   0.364   2.706 -0.8622 -0.0792  2.6935
  685SOL     OW 2053   1.950   0.700   0.882 -0.4088  0.8737 -0.0953
  685SOL    HW1 2054   2.018   0.767   0.880 -1.4064  1.8948 -0.9155
  685SOL    HW2 2055   1.902   0.712   0.800 -1.1533 -0.2776  0.1485
  686SOL     OW 2056   2.513   0.310   1.371  0.0491 -0.3979 -0.3038
  686SOL    HW1 2057   2.574   0.337   1.302 -0.1156 -1.3652 -0.8476
  686SOL    HW2 2058   2.461   0.388   1.389 -0.4192 -0.3075 -1.8417
  687SOL     OW 2059   1.505   1.815   1.001 -0.6846  0.2112  0.1461
  687SOL    HW1 2060   1.417   1.833   0.968 -0.6915  0.4073  0.2723
  687SOL    HW2 2061   1.492   1.751   1.070 -0.3831 -3.0483 -2.5472
  688SOL     OW 2062   0.333   2.600   1.801  0.2232 -0.3757 -0.6362
  688SOL    HW1 2063   0.319   2.687   1.837  0.2874 -0.9215  0.7723
  688SOL    HW2 2064   0.248   2.576   1.763 -1.0015 -1.1713  2.3271
  689SOL     OW 2065   0.467   0.970   1.643 -0.2791 -0.4168  0.0900
  689SOL    HW1 2066   0.496   1.053   1.681 -1.0171  0.4923 -1.2581
  689SOL    HW2 2067   0.522   0.957   1.567 -0.4633 -0.9369  0.0420
  690SOL     OW 2068   1.928   1.116   1.465  0.1291  0.0499 -0.6575
  690SOL    HW1 2069   1.903   1.134   1.555  2.0037  1.8454 -0.4100
  690SOL    HW2 2070   1.848   1.132   1.414 -0.6814  0.0215  0.5807
  691SOL     OW 2071   2.834   0.732   0.188  0.8378  0.3169 -0.7220
  691SOL    HW1 2072   2.757   0.785   0.165  1.5585  1.3514 -0.8420
  691SOL    HW2 2073   2.907   0.794   0.184  1.6602 -0.6177 -0.4733
  692SOL     OW 2074   0.778   0.415   1.616 -0.1471  0.1093  0.2344
  692SOL    HW1 2075   0.786   0.461   1.532 -0.5701 -0.6967 -0.2625
  692SOL    HW2 2076   0.714   0.466   1.665 -1.1097 -0.2979 -0.5689
  693SOL     OW 2077   1.485   1.525   1.737  0.1166  0.3191 -0.1647
  693SOL    HW1 2078   1.500   1.440   1.695  1.7792 -0.4729  1.8461
  693SOL    HW2 2079   1.392   1.542   1.723 -0.3761 -2.0616 -0.2899
  694SOL     OW 2080   1.780   0.080   1.111 -0.1467 -0.0594  0.1266
  694SOL    HW1 2081   1.857   0.123   1.074 -1.3643  0.3118 -2.1329
  694SOL    HW2 2082   1.794   0.083   1.206  2.5448  0.0805 -0.1974
  695SOL     OW 2083   1.651   0.656   1.610 -0.0846 -0.1197 -0.6050
  695SOL    HW1 2084   1.572   0.609   1.637 -0.0909  0.5408  0.5779
  695SOL    HW2 2085   1.702   0.667   1.690  0.7439  0.3326 -1.1798
  696SOL     OW 2086   0.357   2.675   0.750  0.5167 -0.5401 -0.2837
  696SOL    HW1 2087   0.277   2.639   0.788  0.6454 -2.8480 -1.9789
  696SOL    HW2 2088   0.419   2.602   0.751  2.5262  1.0944  0.6476
  697SOL     OW 2089   0.243   0.321   1.434  0.4877  0.8705 -0.0338
  697SOL    HW1 2090   0.215   0.232   1.417  1.5353  0.4193  0.4932
  697SOL    HW2 2091   0.270   0.354   1.349  1.0984  0.3096 -0.0651
  698SOL     OW 2092   1.050   0.310   0.950  0.0703 -0.0292  0.1500
  698SOL    HW1 2093   1.077   0.218   0.958 -0.3869 -0.2651 -0.9085
  698SOL    HW2 2094   1.112   0.358   1.005  0.0936 -1.0057  1.0088
  699SOL     OW 2095   2.339   2.792   2.346  0.0857  0.1243  0.6564
  699SOL    HW1 2096   2.305   2.839   2.422  0.9499  1.0873  0.4832
  699SOL    HW2 2097   2.426   2.830   2.333 -0.3580  0.5639 -1.2987
  700SOL     OW 2098   2.844   0.916   0.638  0.6650 -0.0701 -0.0823
  700SOL    HW1 2099   2.769   0.916   0.698  1.2302  1.2911  0.6823
  700SOL    HW2 2100   2.899   0.988   0.670  0.7153  1.0993 -2.6046
  701SOL     OW 2101   0.366   1.665   1.559  0.3076  0.0193  0.1533
  701SOL    HW1 2102   0.430   1.689   1.493 -0.3163  2.7907  0.4588
  701SOL    HW2 2103   0.416   1.657   1.640  0.5809  0.0098 -0.0170
  702SOL     OW 2104   1.084   0.735   1.124  0.5096 -0.3372  0.0745
  702SOL    HW1 2105   1.132   0.755   1.204  1.2072 -1.5260 -0.0119
  702SOL    HW2 2106   1.101   0.642   1.109  0.2154 -0.1880 -1.3401
  703SOL     OW 2107   2.895   2.509   2.725  0.0064 -0.1355  0.3789
  703SOL    HW1 2108   2.830   2.542   2.786  0.5168  1.1975  0.2533
  703SOL    HW2 2109   2.912   2.420   2.753 -0.7333  0.0155  1.3613
  704SOL     OW 2110   2.733   0.990   2.643  0.2209  0.5644  0.4742
  704SOL    HW1 2111   2.754   0.989   2.550 -1.2025  0.3167  0.1393
  704SOL    HW2 2112   2.807   0.945   2.685 -0.2837 -1.6093 -0.8055
  705SOL     OW 2113   0.904   2.733   2.077 -0.5138 -0.0634 -0.0097
  705SOL    HW1 2114   0.812   2.729   2.049 -0.1842  1.8128 -1.5829
  705SOL    HW2 2115   0.907   2.809   2.136  0.1728  0.5253 -0.7718
  706SOL     OW 2116   2.776   2.347   1.238  0.3798 -0.2729  0.7192
  706SOL    HW1 2117   2.739   2.371   1.323  1.8639 -0.9162  1.5734
  706SOL    HW2 2118   2.784   2.252   1.241  1.9919 -0.1613  0.5216
  707SOL     OW 2119   2.104   0.083   2.596 -0.1969  0.0408 -0.0577
  707SOL    HW1 2120   2.166   0.110   2.529 -0.5269  0.4203 -0.2100
  707SOL    HW2 2121   2.158   0.041   2.663  0.0843 -0.7392 -0.7599
  708SOL     OW 2122   0.079   0.251   1.858 -0.2470 -0.0249 -0.1527
  708SOL    HW1 2123   0.032   0.192   1.799 -0.7669  0.3467 -0.1081
  708SOL    HW2 2124   0.139   0.299   1.800  0.4795 -0.8682 -0.1372
  709SOL     OW 2125   2.779   2.202   2.654 -0.4902  0.4374 -0.0206
  709SOL    HW1 2126   2.864   2.227   2.688  0.8719 -1.5890 -1.6645
  709SOL    HW2 2127   2.753   2.275   2.597  0.4068  0.8597  0.0958
  710SOL     OW 2128   1.787   1.915   1.028  0.5327  0.3507 -0.1919
  710SOL    HW1 2129   1.703   1.901   0.985  0.5495 -0.4777  0.0088
  710SOL    HW2 2130   1.777   1.873   1.114  2.0539 -2.3923 -1.2087
  711SOL     OW 2131   0.750   1.198   2.654  0.0660 -0.1099  0.2466
  711SOL    HW1 2132   0.792   1.282   2.638  0.0853  0.0710  1.2343
  711SOL    HW2 2133   0.812   1.150   2.708  0.2551 -0.9422 -0.6671
  712SOL     OW 2134   2.590   2.930   2.199  0.3248 -0.1792 -0.0065
  712SOL    HW1 2135   2.668   2.877   2.184 -0.1273 -0.6744 -0.6627
  712SOL    HW2 2136   2.602   2.966   2.287  2.6959  2.2095 -1.1657
  713SOL     OW 2137   1.261   2.378   2.676 -0.0796 -0.0551 -0.4866
  713SOL    HW1 2138   1.209   2.381   2.596 -1.1675 -2.1330  0.0718
  713SOL    HW2 2139   1.282   2.470   2.694 -1.1025  0.5926 -2.2940
  714SOL     OW 2140   1.467   0.883   1.093 -0.4020 -0.1065  0.2883
  714SOL    HW1 2141   1.534   0.941   1.130 -1.1328  0.7732  0.2539
  714SOL    HW2 2142   1.517   0.814   1.051  0.5085  0.7770 -0.1259
  715SOL     OW 2143   2.934   0.494   2.959 -0.2705 -0.8287  0.1630
  715SOL    HW1 2144   2.882   0.559   3.007  1.0293  0.0540  0.4207
  715SOL    HW2 2145   2.874   0.460   2.892 -1.1863  0.1230  0.4780
  716SOL     OW 2146   0.218   2.261   2.393  0.0093  0.3502 -0.0269
  716SOL    HW1 2147   0.284   2.252   2.325  1.3871  0.6795  1.1999
  716SOL    HW2 2148   0.217   2.176   2.437  1.3199  0.9973  1.3789
  717SOL     OW 2149   1.522   0.390   0.716  0.0102 -0.4655 -0.2723
  717SOL    HW1 2150   1.598   0.392   0.657  0.0140  2.4994 -0.3120
  717SOL    HW2 2151   1.540   0.317   0.775  3.4384  0.6710  0.3461
  718SOL     OW 2152   1.496   1.570   2.652  0.1786  0.3619  0.3449
  718SOL    HW1 2153   1.442   1.532   2.721  0.6317 -0.4888  0.2327
  718SOL    HW2 2154   1.583   1.535   2.666  0.4892  0.9421 -0.0826
  719SOL     OW 2155   0.575   2.536   1.702  0.0855  1.0168 -0.1325
  719SOL    HW1 2156   0.501   2.553   1.760  0.7696 -0.0874  1.1424
  719SOL    HW2 2157   0.549   2.458   1.653  0.1521  0.9939 -0.1311
  720SOL     OW 2158   0.611   1.826   1.148  0.1238 -0.5206 -0.3563
  720SOL    HW1 2159   0.529   1.867   1.123 -0.2768 -1.0252  0.0857
  720SOL    HW2 2160   0.624   1.852   1.239  1.7590  1.6139 -1.1310
  721SOL     OW 2161   2.932   2.596   2.417  0.0384  0.1029 -0.3383
  721SOL    HW1 2162   2.859   2.581   2.477 -0.4287  1.6226 -0.4769
  721SOL    HW2 2163   2.955   2.509   2.385 -3.1896 -0.3089 -2.0266
  722SOL     OW 2164   1.445   1.881   1.603 -0.0562 -0.0512  0.1452
  722SOL    HW1 2165   1.385   1.956   1.600  1.0911  0.9215  0.7095
  722SOL    HW2 2166   1.489   1.883   1.518  1.3705  1.1569  0.8486
  723SOL     OW 2167   0.421   0.555   0.779  0.1589  0.1155  0.3053
  723SOL    HW1 2168   0.485   0.598   0.722 -0.9166  1.5978  0.1714
  723SOL    HW2 2169   0.470   0.484   0.821  1.1226 -0.7598 -2.1032
  724SOL     OW 2170   0.838   2.758   1.305 -0.5774  0.0887  0.3825
  724SOL    HW1 2171   0.856   2.781   1.214  0.8714  0.4556  0.7267
  724SOL    HW2 2172   0.774   2.823   1.334  1.3503  2.0421  0.5080
  725SOL     OW 2173   0.846   2.371   2.746  0.8563 -0.3666 -0.0647
  725SOL    HW1 2174   0.766   2.323   2.726  1.5408 -0.9842 -1.4012
  725SOL    HW2 2175   0.901   2.308   2.793  0.7074 -0.0493  0.5459
  726SOL     OW 2176   0.032   0.504   1.239  0.7170 -0.2768  0.8504
  726SOL    HW1 2177   0.112   0.543   1.274  1.6748  0.6321 -2.0702
  726SOL    HW2 2178   0.042   0.509   1.144 -2.6896 -0.4202  0.3579
  727SOL     OW 2179   2.467   0.198   0.482 -0.4107  0.1086  0.0184
  727SOL    HW1 2180   2.511   0.161   0.559 -1.1347 -1.8615 -0.4695
  727SOL    HW2 2181   2.474   0.293   0.494 -0.8857 -0.1269  2.7323
  728SOL     OW 2182   2.511   0.916   2.822 -0.0693 -0.4243 -0.3581
  728SOL    HW1 2183   2.582   0.890   2.763 -0.7403  1.4818 -2.1269
  728SOL    HW2 2184   2.534   0.877   2.906  2.0002 -1.5568 -1.3781
  729SOL     OW 2185   2.823   1.247   2.182  0.3835  0.4143  0.1994
  729SOL    HW1 2186   2.841   1.154   2.172 -0.1304  0.1089  1.9288
  729SOL    HW2 2187   2.774   1.270   2.103 -1.7175 -1.3841  0.8756
  730SOL     OW 2188   1.065   0.888   0.247 -0.2744  0.2017 -0.1380
  730SOL    HW1 2189   1.108   0.971   0.225 -1.8144  0.5620 -2.0579
  730SOL    HW2 2190   1.118   0.821   0.204  0.0104  0.3425 -0.0097
  731SOL     OW 2191   2.080   0.362   0.241 -0.5073 -0.0471 -0.2391
  731SOL    HW1 2192   2.170   0.335   0.261 -0.4731 -0.2698 -0.6783
  731SOL    HW2 2193   2.047   0.294   0.182 -0.1666  1.2124 -1.9467
  732SOL     OW 2194   0.981   0.407   0.711  0.1245  0.1797  0.0018
  732SOL    HW1 2195   1.001   0.500   0.723 -1.5184  0.7326 -1.1429
  732SOL    HW2 2196   0.994   0.368   0.797  0.0330  1.6432  0.7063
  733SOL     OW 2197   2.216   2.429   1.879  0.2655 -0.1118 -0.1266
  733SOL    HW1 2198   2.202   2.339   1.908  1.2840 -0.4496 -0.6251
  733SOL    HW2 2199   2.242   2.476   1.958 -2.6138  0.3622  0.6678
  734SOL     OW 2200   0.744   2.435   0.045  0.3760  0.0069 -0.3007
  734SOL    HW1 2201   0.817   2.466   0.100 -0.1484  1.0465 -0.1566
  734SOL    HW2 2202   0.782   2.425  -0.042  0.4573  1.6467 -0.4833
  735SOL     OW 2203   2.693   0.385   0.230 -0.1395 -0.7922  0.0474
  735SOL    HW1 2204   2.774   0.367   0.278 -0.7897 -0.2005  1.4254
  735SOL    HW2 2205   2.632   0.318   0.261 -0.2161 -1.1777 -0.9126
  736SOL     OW 2206   1.526   2.862   1.364 -0.0625 -0.3175  0.3522
  736SOL    HW1 2207   1.603   2.848   1.419 -0.0813 -1.2647  0.1483
  736SOL    HW2 2208   1.514   2.957   1.364  0.0183 -0.2785  1.8676
  737SOL     OW 2209   0.884   1.321   0.351 -0.6094 -0.0845  0.1008
  737SOL    HW1 2210   0.818   1.263   0.389 -3.2285  1.6434 -1.4322
  737SOL    HW2 2211   0.845   1.408   0.358  2.2636  1.2659  0.5013
  738SOL     OW 2212   0.550   0.688   1.811  0.0937 -0.1992  0.5494
  738SOL    HW1 2213   0.507   0.678   1.726  1.1450 -1.1628  0.1080
  738SOL    HW2 2214   0.496   0.637   1.872  0.8074 -1.7498 -0.0780
  739SOL     OW 2215   0.642   0.821   1.472 -0.3819 -0.3235  0.2958
  739SOL    HW1 2216   0.630   0.859   1.385 -0.1195 -1.2176 -0.1374
  739SOL    HW2 2217   0.727   0.777   1.468 -0.8000 -1.1934  0.6975
  740SOL     OW 2218   0.351   1.516   0.556  0.3937 -0.0740  0.9332
  740SOL    HW1 2219   0.323   1.607   0.567 -1.9267 -0.6047 -0.0111
  740SOL    HW2 2220   0.358   1.483   0.646 -1.0103  0.4147  1.2455
  741SOL     OW 2221   1.006   1.539   2.080  0.0245  0.1651 -0.4288
  741SOL    HW1 2222   0.913   1.518   2.072 -0.1935  0.6677  0.6279
  741SOL    HW2 2223   1.039   1.478   2.146  0.7674 -0.9228 -1.7620
  742SOL     OW 2224   2.531   2.114   1.257 -0.2154 -0.0072  0.0313
  742SOL    HW1 2225   2.625   2.099   1.251 -0.6342 -3.1818 -0.2852
  742SOL    HW2 2226   2.513   2.115   1.351  0.1539  1.0881  0.1057
  743SOL     OW 2227   2.273   1.452   1.269 -0.4226 -0.0167 -0.1927
  743SOL    HW1 2228   2.200   1.496   1.314 -1.1094  0.5919 -1.8263
  743SOL    HW2 2229   2.319   1.523   1.224  1.0183 -0.4418  0.5486
  744SOL     OW 2230   0.579   2.478   2.658 -0.5439 -0.3537  0.4075
  744SOL    HW1 2231   0.506   2.461   2.717  0.2548  1.2345  1.9591
  744SOL    HW2 2232   0.586   2.574   2.656  1.0400 -0.4543 -0.2846
  745SOL     OW 2233   1.209   1.950   0.479 -0.3747 -0.4300  1.0252
  745SOL    HW1 2234   1.214   1.987   0.391 -0.3079 -4.3919 -0.8343
  745SOL    HW2 2235   1.300   1.939   0.506 -0.3377 -1.1232  0.6462
  746SOL     OW 2236   0.702   2.672   0.836  0.6972  0.6113  0.0039
  746SOL    HW1 2237   0.683   2.764   0.815  0.0481  0.5713  0.3880
  746SOL    HW2 2238   0.694   2.626   0.752  0.2879  0.7904 -0.0570
  747SOL     OW 2239   1.707   1.498   1.125  0.5578  0.6292  0.1406
  747SOL    HW1 2240   1.754   1.433   1.177 -0.5187 -0.6104 -0.3728
  747SOL    HW2 2241   1.734   1.480   1.035  0.1147  0.7866 -0.0246
  748SOL     OW 2242   0.997   0.099   1.341  0.6129  0.0612  0.4603
  748SOL    HW1 2243   1.068   0.035   1.341  0.7921  0.2228 -1.0783
  748SOL    HW2 2244   0.934   0.065   1.278 -0.1344  0.5191  0.9385
  749SOL     OW 2245   2.158   2.728   2.139  0.4197 -0.3546  0.0964
  749SOL    HW1 2246   2.203   2.755   2.219  1.0083 -2.3831  0.5222
  749SOL    HW2 2247   2.079   2.683   2.170  0.7897 -1.3985 -0.4093
  750SOL     OW 2248   0.936   1.445   1.488  0.1757 -0.0355 -0.3153
  750SOL    HW1 2249   0.948   1.521   1.545 -1.2817  0.8186 -1.1115
  750SOL    HW2 2250   0.842   1.432   1.485  0.3190 -0.9441 -1.4144
  751SOL     OW 2251   1.923   2.757   1.316  0.0014 -0.0988 -0.1457
  751SOL    HW1 2252   1.832   2.733   1.335  0.2866 -1.0096  0.1275
  751SOL    HW2 2253   1.952   2.692   1.252  0.3997  0.3063 -0.3823
  752SOL     OW 2254   2.417   2.249   2.029  0.2784  0.0496  0.9101
  752SOL    HW1 2255   2.438   2.166   2.073  0.3805 -0.4124  0.0084
  752SOL    HW2 2256   2.379   2.303   2.098 -1.4030 -1.3643  1.1700
  753SOL     OW 2257   1.994   0.826   2.730  0.1530 -0.4418 -0.6279
  753SOL    HW1 2258   2.029   0.865   2.810  1.0268 -1.1534 -0.6467
  753SOL    HW2 2259   1.914   0.782   2.757  0.2024 -0.2924 -0.2318
  754SOL     OW 2260   1.882   1.125   2.499  0.4683  0.2373 -0.2776
  754SOL    HW1 2261   1.834   1.100   2.578  1.3269 -0.3266  0.0842
  754SOL    HW2 2262   1.937   1.049   2.479  2.1533  1.3121  0.0559
  755SOL     OW 2263   1.659   2.431   1.964  0.3695  0.3657 -0.6763
  755SOL    HW1 2264   1.564   2.420   1.972  0.3082  0.5489 -1.1083
  755SOL    HW2 2265   1.695   2.379   2.035  0.0066 -0.8885 -1.3709
  756SOL     OW 2266   2.914   1.353   1.623  0.3308 -0.1226  0.5491
  756SOL    HW1 2267   2.902   1.447   1.635 -1.5849 -0.1520 -0.6691
  756SOL    HW2 2268   2.999   1.345   1.580 -0.0521  1.1844 -0.5046
  757SOL     OW 2269   2.495   2.152   2.582 -0.1137  0.2161 -0.4715
  757SOL    HW1 2270   2.580   2.125   2.618 -0.6408  1.4558  1.9353
  757SOL    HW2 2271   2.503   2.247   2.573 -0.8904  0.2095 -1.2733
  758SOL     OW 2272   2.254   2.431   2.373 -0.0388 -0.7589 -0.1665
  758SOL    HW1 2273   2.163   2.429   2.403 -0.3773 -0.8070 -1.1446
  758SOL    HW2 2274   2.306   2.441   2.452 -0.9492  0.2929  0.3200
  759SOL     OW 2275   1.843   2.250   2.897  0.1457 -0.0996 -0.5478
  759SOL    HW1 2276   1.753   2.218   2.907  0.4853 -0.8533  0.1162
  759SOL    HW2 2277   1.857   2.250   2.802 -0.3794 -0.4591 -0.6321
  760SOL     OW 2278   2.109   2.536   0.707  0.2196 -0.1235 -0.4598
  760SOL    HW1 2279   2.082   2.543   0.616  1.8665 -1.2941 -1.0807
  760SOL    HW2 2280   2.150   2.450   0.714  0.4835  0.0927  1.3055
  761SOL     OW 2281   1.711   2.737   1.539  0.1161 -0.0186  0.3187
  761SOL    HW1 2282   1.765   2.753   1.616  1.2563 -0.8656 -0.2659
  761SOL    HW2 2283   1.735   2.648   1.511 -1.7731 -0.5378  0.1686
  762SOL     OW 2284   1.228   0.520   1.721  0.5137  0.0585 -0.4051
  762SOL    HW1 2285   1.231   0.579   1.796  0.6410  0.7328 -0.9244
  762SOL    HW2 2286   1.162   0.455   1.744 -1.0639  1.5118 -0.5953
  763SOL     OW 2287   2.752   2.372   0.326  0.0231  0.6283  0.1608
  763SOL    HW1 2288   2.719   2.386   0.415  1.5101  2.6648  0.4706
  763SOL    HW2 2289   2.828   2.430   0.320 -0.0569  0.5499 -2.4633
  764SOL     OW 2290   1.505   2.281   2.800 -0.0541  0.2907  0.0002
  764SOL    HW1 2291   1.513   2.213   2.734 -0.1498  2.3730 -2.2773
  764SOL    HW2 2292   1.437   2.339   2.767  1.4488  2.6244  0.7773
  765SOL     OW 2293   0.420   1.149   1.260  0.1386  0.0709 -0.1158
  765SOL    HW1 2294   0.397   1.241   1.246 -0.5663 -0.2715 -1.3569
  765SOL    HW2 2295   0.354   1.117   1.322 -1.4911 -0.3397 -1.9781
  766SOL     OW 2296   2.272   0.637   0.196 -0.3260  0.0817 -0.0667
  766SOL    HW1 2297   2.221   0.559   0.176 -0.1080 -0.2445  0.6254
  766SOL    HW2 2298   2.357   0.622   0.154  0.6905 -1.3075  2.2857
  767SOL     OW 2299   1.073   2.744   0.885 -0.0576  0.3332  0.3167
  767SOL    HW1 2300   1.049   2.725   0.794 -1.3853 -0.5931  0.8444
  767SOL    HW2 2301   1.138   2.677   0.907 -0.3794  0.0302  0.3322
  768SOL     OW 2302   0.800   2.323   0.734 -0.1164 -0.1194  0.4533
  768SOL    HW1 2303   0.878   2.377   0.720  0.3167 -0.5800  1.0136
  768SOL    HW2 2304   0.822   2.239   0.693 -0.7344  0.0836 -0.3015
  769SOL     OW 2305   1.232   1.136   0.746 -0.3845 -0.3182 -0.1792
  769SOL    HW1 2306   1.242   1.081   0.668 -2.7286  1.3160 -1.7630
  769SOL    HW2 2307   1.199   1.076   0.813  0.8365 -1.5901 -0.6681
  770SOL     OW 2308   0.303   2.046   1.989 -0.3768  0.5094 -0.0148
  770SOL    HW1 2309   0.248   2.059   1.912 -0.4616  0.0512 -0.0368
  770SOL    HW2 2310   0.245   2.002   2.052  0.1122 -0.4602 -0.2316
  771SOL     OW 2311   2.525   1.331   1.652  0.2849  0.5458  0.5159
  771SOL    HW1 2312   2.509   1.415   1.610  0.9162  0.5237  0.2221
  771SOL    HW2 2313   2.532   1.269   1.579 -0.9381  0.0992  0.7591
  772SOL     OW 2314   1.003   1.226   1.956  0.2973 -0.1983 -0.0583
  772SOL    HW1 2315   0.929   1.212   2.015 -1.2462  0.0760 -1.8313
  772SOL    HW2 2316   1.027   1.138   1.926 -1.7511 -0.1012 -2.2429
  773SOL     OW 2317   0.064   1.417   1.147  0.2821 -0.2989 -0.2101
  773SOL    HW1 2318   0.025   1.440   1.063 -0.5109 -0.2245  0.1676
  773SOL    HW2 2319   0.023   1.477   1.210 -1.0151 -1.9857  0.6193
  774SOL     OW 2320   2.095   0.038   1.289  0.8013  0.2271  0.0089
  774SOL    HW1 2321   2.063  -0.050   1.269  1.5163  0.2470 -1.3295
  774SOL    HW2 2322   2.058   0.058   1.375  1.0494 -1.5835  0.5836
  775SOL     OW 2323   1.839   1.656   1.487  0.6376  0.4521  0.4724
  775SOL    HW1 2324   1.887   1.674   1.568  2.1906 -0.8531 -0.1067
  775SOL    HW2 2325   1.848   1.562   1.474 -2.4130  0.0571  0.4671
  776SOL     OW 2326   1.385   2.708   2.314 -0.3011 -0.3944 -0.2317
  776SOL    HW1 2327   1.369   2.637   2.252 -3.5668 -1.2661  1.3461
  776SOL    HW2 2328   1.417   2.664   2.393  1.6569  0.4339 -0.5178
  777SOL     OW 2329   0.222   0.131   0.764 -0.5067  0.4748 -0.6325
  777SOL    HW1 2330   0.138   0.174   0.779 -1.0015  0.1753 -2.2800
  777SOL    HW2 2331   0.202   0.062   0.700  0.5036 -1.3762  0.9490
  778SOL     OW 2332   0.932   1.425   2.638 -0.4248 -0.3077 -0.1159
  778SOL    HW1 2333   1.004   1.362   2.635  0.9213  1.1765 -0.2043
  778SOL    HW2 2334   0.962   1.498   2.584 -1.2601  1.1014  1.2585
  779SOL     OW 2335   0.040   2.274   0.797  0.0092 -0.1434  0.4281
  779SOL    HW1 2336   0.063   2.349   0.743 -1.2825 -0.9275 -1.3028
  779SOL    HW2 2337  -0.055   2.280   0.808 -0.2483 -1.8959 -0.4268
  780SOL     OW 2338   0.978   1.987   1.487  0.3970 -0.5521 -0.3424
  780SOL    HW1 2339   1.014   1.999   1.575  1.9641  0.8152 -1.1192
  780SOL    HW2 2340   0.884   1.976   1.501  0.5202  0.3092  1.4499
  781SOL     OW 2341   2.324   0.972   1.795 -0.2372 -0.3508 -0.2052
  781SOL    HW1 2342   2.401   1.022   1.822  0.6935 -1.7807 -0.1223
  781SOL    HW2 2343   2.265   1.037   1.757  1.3759  0.6475 -1.0785
  782SOL     OW 2344   0.634   0.056   2.912 -0.8258 -0.4952  0.0987
  782SOL    HW1 2345   0.644   0.145   2.946 -1.3260 -0.2352 -0.4020
  782SOL    HW2 2346   0.706   0.007   2.950  0.0243  0.3492 -0.3654
  783SOL     OW 2347   2.145   2.312   1.196  0.0884  0.1638  0.3370
  783SOL    HW1 2348   2.147   2.373   1.122  1.4171  0.0770  0.2825
  783SOL    HW2 2349   2.231   2.270   1.195  0.8167  1.3969  2.9500
  784SOL     OW 2350   1.792   2.709   2.412 -0.1215 -0.1088  0.0132
  784SOL    HW1 2351   1.731   2.721   2.339 -0.6165  0.1859  0.4646
  784SOL    HW2 2352   1.800   2.796   2.451  0.3165 -0.2186  0.1664
  785SOL     OW 2353   1.164   2.659   2.026 -0.7161 -0.4635 -0.5848
  785SOL    HW1 2354   1.199   2.645   2.114 -0.3731  2.3926 -0.1694
  785SOL    HW2 2355   1.084   2.709   2.040  1.4476  3.8276 -1.8589
  786SOL     OW 2356   1.418   0.880   2.007 -0.0410 -0.4585  0.0767
  786SOL    HW1 2357   1.484   0.819   2.039 -0.6574 -0.8956  0.5466
  786SOL    HW2 2358   1.391   0.930   2.084  1.2753  1.2426 -0.4988
  787SOL     OW 2359   1.811   1.892   0.127  0.3624 -0.8115  0.4145
  787SOL    HW1 2360   1.861   1.920   0.203  2.2211 -0.2137 -0.9363
  787SOL    HW2 2361   1.756   1.966   0.105 -0.2551 -1.0249  1.2164
  788SOL     OW 2362   2.000   2.337   0.461  0.3610 -0.0145 -0.2609
  788SOL    HW1 2363   2.066   2.281   0.501 -1.1287 -1.6518  0.0245
  788SOL    HW2 2364   1.926   2.333   0.520 -0.0474  1.7501 -0.5974
  789SOL     OW 2365   1.369   0.033   1.169  0.5374  0.1403 -0.4203
  789SOL    HW1 2366   1.426   0.097   1.211 -0.1134  1.2832 -1.1921
  789SOL    HW2 2367   1.320  -0.008   1.240 -0.3445  1.8319 -0.0025
  790SOL     OW 2368   1.017   1.096   1.024 -0.3114  0.1146 -0.3447
  790SOL    HW1 2369   1.032   1.066   1.113 -1.3645  0.3602 -0.0743
  790SOL    HW2 2370   1.095   1.148   1.003  1.3665 -2.3170 -0.6589
  791SOL     OW 2371   0.368   2.562   1.420 -0.2964  0.0225 -0.3851
  791SOL    HW1 2372   0.415   2.597   1.497 -2.0761 -0.8334  1.1696
  791SOL    HW2 2373   0.431   2.570   1.348  1.8865 -0.1784  1.3827
  792SOL     OW 2374   0.819   1.475   2.331 -0.7594  0.3580  0.1677
  792SOL    HW1 2375   0.908   1.441   2.324 -0.2718  1.1525  2.0135
  792SOL    HW2 2376   0.764   1.397   2.330 -0.0490 -0.1604 -0.6648
  793SOL     OW 2377   0.186   1.121   2.244  0.9271  0.2759  0.2190
  793SOL    HW1 2378   0.210   1.042   2.292 -1.4703 -0.4522  0.3838
  793SOL    HW2 2379   0.194   1.097   2.151  1.1871  0.1863  0.2650
  794SOL     OW 2380   2.633   2.523   2.196  0.0770  0.4147 -0.0683
  794SOL    HW1 2381   2.539   2.528   2.177 -0.0468  0.9070  0.6315
  794SOL    HW2 2382   2.664   2.448   2.145 -1.4825 -2.4232  2.8111
  795SOL     OW 2383   0.017   1.477   0.600 -0.1720  0.8237 -0.0349
  795SOL    HW1 2384   0.034   1.533   0.524  0.3160 -0.3122 -0.7892
  795SOL    HW2 2385   0.087   1.498   0.662 -0.1381  1.2164 -0.2057
  796SOL     OW 2386   0.631   0.961   0.573 -0.2015 -0.0852 -0.1222
  796SOL    HW1 2387   0.650   0.974   0.666 -2.5184  0.9324  0.2959
  796SOL    HW2 2388   0.716   0.958   0.530  0.8901  1.3482  1.8071
  797SOL     OW 2389   2.435   1.645   1.108 -0.3148 -0.1096 -0.7921
  797SOL    HW1 2390   2.394   1.731   1.122  0.5837  0.1826  0.2373
  797SOL    HW2 2391   2.520   1.666   1.070  0.7828 -0.3691  1.3991
  798SOL     OW 2392   2.086   0.885   2.181 -0.4863 -0.3088  0.1178
  798SOL    HW1 2393   2.001   0.874   2.137 -0.3015 -1.0762 -0.0722
  798SOL    HW2 2394   2.151   0.860   2.115 -0.1235  0.0816  0.3247
  799SOL     OW 2395   0.401   2.204   2.202 -0.1912  0.3027 -0.3640
  799SOL    HW1 2396   0.425   2.282   2.151 -4.2468  1.1648 -1.2697
  799SOL    HW2 2397   0.372   2.141   2.137 -1.7946 -0.0277  0.6327
  800SOL     OW 2398   0.569   0.899   0.295 -0.2138 -0.1171 -0.2059
  800SOL    HW1 2399   0.576   0.966   0.228 -2.6399 -0.4304 -0.8681
  800SOL    HW2 2400   0.603   0.941   0.374 -0.9270  1.6412 -0.7782
  801SOL     OW 2401   1.424   2.609   0.580  0.7238 -0.1959 -0.5982
  801SOL    HW1 2402   1.495   2.550   0.607  0.6783  1.2340  3.2579
  801SOL    HW2 2403   1.464   2.695   0.578 -0.4078  0.3478 -0.5962
  802SOL     OW 2404   0.414   0.306   2.214  0.4136  0.4797 -0.2172
  802SOL    HW1 2405   0.483   0.300   2.280 -0.1043  0.9409  0.3749
  802SOL    HW2 2406   0.412   0.219   2.174  0.7252  0.1895  0.3858
  803SOL     OW 2407   2.389   2.225   1.058  0.5457  0.0908  0.2463
  803SOL    HW1 2408   2.452   2.193   1.123 -0.1777 -1.1672  0.3491
  803SOL    HW2 2409   2.396   2.320   1.063  0.7636  0.0144  1.9083
  804SOL     OW 2410   2.751   0.790   1.354 -0.0808 -0.0288 -0.1012
  804SOL    HW1 2411   2.796   0.819   1.433  0.6573  1.2392 -0.9395
  804SOL    HW2 2412   2.820   0.750   1.301 -0.2151  0.6251 -0.7868
  805SOL     OW 2413   2.573   1.431   0.818 -0.0278  0.2284  0.0672
  805SOL    HW1 2414   2.498   1.490   0.807 -1.4094 -1.3482  0.6204
  805SOL    HW2 2415   2.537   1.344   0.804  1.4775 -0.6707  1.4551
  806SOL     OW 2416   0.646   1.516   0.619  0.5546 -0.0770  0.0203
  806SOL    HW1 2417   0.653   1.424   0.597  0.3995  0.1789 -1.1520
  806SOL    HW2 2418   0.554   1.538   0.604  1.0110  0.7625 -1.8574
  807SOL     OW 2419   1.516   2.574   2.503  0.3535  0.0680 -0.0787
  807SOL    HW1 2420   1.603   2.598   2.471  0.2107  0.2015 -0.3664
  807SOL    HW2 2421   1.526   2.482   2.531  0.6657  0.1813  0.1925
  808SOL     OW 2422   1.852   2.236   1.340 -0.5903  0.2880  0.5680
  808SOL    HW1 2423   1.919   2.261   1.275  0.0614  2.7243  2.0537
  808SOL    HW2 2424   1.856   2.141   1.343  2.0719  0.3000 -0.2043
  809SOL     OW 2425   2.886   1.279   0.775  0.2072 -0.1559 -0.0942
  809SOL    HW1 2426   2.845   1.333   0.842  1.2545  0.2097  0.2758
  809SOL    HW2 2427   2.921   1.342   0.712  1.3624 -0.3834  0.2957
  810SOL     OW 2428   2.412   2.537   1.367  0.4865 -0.4108  0.2271
  810SOL    HW1 2429   2.426   2.627   1.397  0.4666  0.1935 -1.4630
  810SOL    HW2 2430   2.496   2.494   1.380  0.7116  0.0621  0.3443
  811SOL     OW 2431   0.688   2.009   2.512 -0.3777  0.2175  0.0014
  811SOL    HW1 2432   0.628   1.998   2.586 -1.5184 -0.0885 -0.9428
  811SOL    HW2 2433   0.655   2.087   2.466  0.2234  0.3168 -0.2636
  812SOL     OW 2434   2.011   1.769   1.678  0.5814 -0.0295  0.3816
  812SOL    HW1 2435   1.988   1.858   1.651 -0.3961 -0.0736  1.0204
  812SOL    HW2 2436   2.019   1.775   1.773 -0.5140 -0.8301  0.5404
  813SOL     OW 2437   0.005   0.414   2.075 -0.0260 -0.3313  0.5327
  813SOL    HW1 2438   0.009   0.354   2.001  1.0515 -0.4099  0.6341
  813SOL    HW2 2439  -0.037   0.492   2.041  3.6341  1.0998 -1.2801
  814SOL     OW 2440   0.492   1.256   2.758 -0.4666 -0.2254  0.1088
  814SOL    HW1 2441   0.547   1.307   2.818 -0.4368 -0.7367  0.5216
  814SOL    HW2 2442   0.555   1.208   2.705 -0.4875  0.4083 -0.5014
  815SOL     OW 2443   0.397   2.502   0.238 -0.0732 -0.0816 -0.0534
  815SOL    HW1 2444   0.454   2.494   0.314  0.9150 -1.0068 -0.8540
  815SOL    HW2 2445   0.438   2.568   0.183 -0.7071  0.4813  0.1349
  816SOL     OW 2446   2.368   1.432   2.372 -0.2211 -0.2433  0.6276
  816SOL    HW1 2447   2.321   1.363   2.419 -0.9707 -0.5982 -0.5915
  816SOL    HW2 2448   2.370   1.506   2.433 -0.1691 -1.0442  1.6295
  817SOL     OW 2449   0.549   1.917   0.583 -0.1058 -0.0229  0.6110
  817SOL    HW1 2450   0.591   1.963   0.511 -1.9935  0.2332 -0.3734
  817SOL    HW2 2451   0.464   1.891   0.549  0.4287 -3.3586  1.4460
  818SOL     OW 2452   2.850   0.404   2.335  0.4089  0.5898  0.1649
  818SOL    HW1 2453   2.865   0.397   2.240 -0.2858 -0.3862  0.1141
  818SOL    HW2 2454   2.931   0.373   2.375  0.2778 -0.1319 -0.1144
  819SOL     OW 2455   2.207   1.681   2.053  0.2201  0.1915  0.7285
  819SOL    HW1 2456   2.225   1.587   2.062  0.0986  0.1163  0.1894
  819SOL    HW2 2457   2.125   1.685   2.005  0.6394  0.5831  0.0228
  820SOL     OW 2458   0.486   2.194   0.412 -0.0991  0.0861  0.0394
  820SOL    HW1 2459   0.503   2.288   0.419 -0.5383  0.1504  0.2846
  820SOL    HW2 2460   0.421   2.176   0.480 -0.2764 -0.3328 -0.2357
  821SOL     OW 2461   1.284   2.130   2.944 -0.2286 -0.2346 -0.7075
  821SOL    HW1 2462   1.283   2.225   2.957  0.0781 -0.1594 -1.1795
  821SOL    HW2 2463   1.324   2.119   2.858  0.5026 -0.8283 -0.3050
  822SOL     OW 2464   1.537   2.333   1.217  0.4456 -0.4458 -0.5009
  822SOL    HW1 2465   1.519   2.244   1.187 -1.7146 -0.3003  0.2405
  822SOL    HW2 2466   1.481   2.344   1.293  2.8332  0.5686  1.2345
  823SOL     OW 2467   0.081   2.011   0.387  0.3020  0.3647 -0.1351
  823SOL    HW1 2468   0.128   1.955   0.449 -1.7415 -0.5151  0.6916
  823SOL    HW2 2469   0.119   1.989   0.302 -0.8674 -2.8941  0.0416
  824SOL     OW 2470   0.203   1.907   0.168 -0.4151  0.0013 -0.4411
  824SOL    HW1 2471   0.206   1.971   0.097  0.3191  0.7791  0.2656
  824SOL    HW2 2472   0.172   1.827   0.127 -1.0970  0.7366 -1.4043
  825SOL     OW 2473   2.602   0.859   0.119  0.6034  0.1412  0.3099
  825SOL    HW1 2474   2.555   0.908   0.187 -2.0028 -2.2015  0.3342
  825SOL    HW2 2475   2.571   0.769   0.128  1.7999 -0.6695 -2.6404
  826SOL     OW 2476   1.863   1.121   1.730  0.2106 -0.0811  0.3511
  826SOL    HW1 2477   1.911   1.139   1.811  0.2583 -0.4141  0.3982
  826SOL    HW2 2478   1.785   1.073   1.759 -0.6422  1.2642  0.3799
  827SOL     OW 2479   1.486   2.958   2.198 -0.3691  0.0141 -0.7330
  827SOL    HW1 2480   1.467   3.008   2.277 -2.4195 -0.7646 -0.6848
  827SOL    HW2 2481   1.464   2.867   2.220 -1.0760 -0.2053 -2.2094
  828SOL     OW 2482   2.552   0.980   2.158 -0.2941  0.1371  0.1296
  828SOL    HW1 2483   2.537   1.073   2.142  0.6837  0.6197  1.8045
  828SOL    HW2 2484   2.646   0.973   2.172 -0.4030 -1.0539  0.3401
  829SOL     OW 2485   2.065   0.251   1.098 -0.1614  0.4248  0.1400
  829SOL    HW1 2486   2.036   0.218   1.013  0.9857  0.1696 -0.1614
  829SOL    HW2 2487   2.073   0.173   1.153 -0.3360  0.5278  0.3145
  830SOL     OW 2488   0.907   1.964   2.272 -0.1141  0.5489 -0.0434
  830SOL    HW1 2489   0.984   1.920   2.306 -0.1494  1.5022  1.3833
  830SOL    HW2 2490   0.838   1.897   2.273  0.6791 -0.3179 -1.3825
  831SOL     OW 2491   0.241   2.316   1.374 -0.3046  0.0589  0.0040
  831SOL    HW1 2492   0.268   2.399   1.413  0.9550 -0.0500 -0.5704
  831SOL    HW2 2493   0.173   2.340   1.311 -0.5227  0.5558  0.4298
  832SOL     OW 2494   1.529   0.644   2.555 -0.8771 -0.0989  0.1103
  832SOL    HW1 2495   1.447   0.623   2.510 -0.5593 -0.0772 -0.4865
  832SOL    HW2 2496   1.535   0.579   2.625 -0.5980 -1.1662 -0.8572
  833SOL     OW 2497   1.454   1.484   2.889  0.2510  0.2552 -0.1006
  833SOL    HW1 2498   1.531   1.491   2.946  0.3699 -0.8854 -0.0873
  833SOL    HW2 2499   1.385   1.450   2.946  0.7800 -2.3986 -0.9039
  834SOL     OW 2500   2.433   0.115   1.571  0.5171 -0.0349 -0.7419
  834SOL    HW1 2501   2.471   0.174   1.506 -0.4597  0.7791 -0.6061
  834SOL    HW2 2502   2.494   0.118   1.644  1.3056 -0.4700 -1.3675
  835SOL     OW 2503   1.131   1.239   2.592 -0.2331  0.4414 -0.1244
  835SOL    HW1 2504   1.223   1.260   2.579 -0.1590  0.3983  0.2934
  835SOL    HW2 2505   1.131   1.178   2.666 -0.6189  0.6901  0.0892
  836SOL     OW 2506   0.011   0.232   0.072 -0.4611  0.1531  0.2167
  836SOL    HW1 2507  -0.004   0.323   0.045 -0.8010 -0.1136 -0.5063
  836SOL    HW2 2508   0.092   0.207   0.027 -0.7625 -0.1321 -0.1746
  837SOL     OW 2509   0.021   2.562   0.526 -0.1148 -0.5532 -0.1096
  837SOL    HW1 2510   0.099   2.517   0.559 -1.0727 -1.3263  1.1996
  837SOL    HW2 2511   0.026   2.552   0.431  1.0217 -1.1840 -0.0032
  838SOL     OW 2512   0.789   0.232   0.967  0.0148 -0.1468 -0.1425
  838SOL    HW1 2513   0.856   0.285   1.012 -0.8784  0.0954  0.9420
  838SOL    HW2 2514   0.839   0.180   0.904  0.9920  1.5957 -0.8842
  839SOL     OW 2515   2.636   1.908   2.721  0.8002 -0.0485 -0.5092
  839SOL    HW1 2516   2.656   1.889   2.629 -2.2767 -0.8089 -1.1185
  839SOL    HW2 2517   2.593   1.828   2.753  2.2885 -0.0265  1.8313
  840SOL     OW 2518   2.213   1.837   1.343 -0.0531  0.5293  0.0799
  840SOL    HW1 2519   2.264   1.833   1.424 -0.6286  0.9201  0.4758
  840SOL    HW2 2520   2.147   1.905   1.360  1.1159  2.1228 -1.4888
  841SOL     OW 2521   1.217   1.713   1.442  1.0341  0.2518  0.7115
  841SOL    HW1 2522   1.141   1.689   1.495 -0.7318  2.4172 -0.6328
  841SOL    HW2 2523   1.268   1.772   1.498  1.7417 -1.1428  1.5869
  842SOL     OW 2524   2.377   2.953   2.694 -0.8845 -0.6936 -0.0082
  842SOL    HW1 2525   2.327   2.903   2.758 -0.0859 -0.1156  1.0870
  842SOL    HW2 2526   2.437   3.006   2.746 -1.4238  1.1108 -1.1455
  843SOL     OW 2527   1.662   2.804   1.146 -0.6721 -0.1279  0.2504
  843SOL    HW1 2528   1.595   2.807   1.214 -1.4049  0.3795 -0.4695
  843SOL    HW2 2529   1.670   2.895   1.117  2.7103  0.4675  2.5315
  844SOL     OW 2530   0.604   0.664   0.595 -0.6735  0.3274 -0.4828
  844SOL    HW1 2531   0.683   0.631   0.552  1.7896 -0.2981  3.9326
  844SOL    HW2 2532   0.601   0.756   0.571  0.9881  0.1992 -1.3626
  845SOL     OW 2533   0.995   1.670   1.616  0.4650 -0.2298 -0.2599
  845SOL    HW1 2534   1.053   1.663   1.692  0.3106 -0.2290 -0.1412
  845SOL    HW2 2535   0.920   1.721   1.648  1.0767  1.0809 -0.8098
  846SOL     OW 2536   0.100   2.523   2.964 -0.2782 -0.2054  0.0225
  846SOL    HW1 2537   0.120   2.616   2.975 -1.4455  0.0291  0.3488
  846SOL    HW2 2538   0.006   2.522   2.942 -0.3911 -1.3299  0.5178
  847SOL     OW 2539   1.181   0.717   1.930 -0.0283 -0.0875 -0.5181
  847SOL    HW1 2540   1.108   0.773   1.902  0.8597  0.1168 -2.5595
  847SOL    HW2 2541   1.250   0.778   1.954 -0.0855 -0.3057  0.2490
  848SOL     OW 2542   2.062   0.237   1.880  0.2094 -0.0716 -0.1741
  848SOL    HW1 2543   1.968   0.239   1.860 -0.2830 -0.3937  1.9138
  848SOL    HW2 2544   2.096   0.165   1.827 -1.3975 -2.2089  1.5461
  849SOL     OW 2545   2.603   0.010   0.976 -0.0354  0.3834  0.3388
  849SOL    HW1 2546   2.531  -0.050   0.996 -0.2417  0.0947 -1.1375
  849SOL    HW2 2547   2.560   0.096   0.966 -0.1592  0.2483 -0.3394
  850SOL     OW 2548   1.173   0.057   0.971 -0.9198 -0.3194 -0.4739
  850SOL    HW1 2549   1.168  -0.025   0.922  0.9192 -0.2359 -0.8712
  850SOL    HW2 2550   1.220   0.034   1.051 -0.2531  0.3591 -0.6585
  851SOL     OW 2551   1.091   1.408   2.360 -0.3467  0.1631  0.0358
  851SOL    HW1 2552   1.077   1.346   2.431 -0.0201 -1.7514 -1.4703
  851SOL    HW2 2553   1.179   1.443   2.376  0.2108 -1.1411 -0.0209
  852SOL     OW 2554   2.340   1.576   0.838  0.5397  0.0449  0.1830
  852SOL    HW1 2555   2.349   1.633   0.915 -1.0242 -0.3393  0.6848
  852SOL    HW2 2556   2.311   1.635   0.768 -0.6429 -0.0239  0.5909
  853SOL     OW 2557   2.663   2.406   2.490  1.2921  0.3480 -0.5014
  853SOL    HW1 2558   2.616   2.477   2.534  1.6726 -0.5778  1.5121
  853SOL    HW2 2559   2.638   2.414   2.398  1.5513  3.2551 -0.4120
  854SOL     OW 2560   1.948   2.096   0.914  0.0082  0.2616  0.3248
  854SOL    HW1 2561   1.891   2.025   0.943  0.3511 -0.1475 -0.0039
  854SOL    HW2 2562   1.895   2.175   0.928 -0.7719 -0.1372 -0.2963
  855SOL     OW 2563   2.050   2.145   2.228 -0.4379 -0.1762 -0.7273
  855SOL    HW1 2564   1.998   2.071   2.257 -1.8978  0.7857 -0.7650
  855SOL    HW2 2565   2.140   2.122   2.251 -0.9506 -1.5960 -0.0237
  856SOL     OW 2566   1.558   2.695   1.887  0.2293  0.5971  0.0894
  856SOL    HW1 2567   1.467   2.701   1.858 -0.4523  1.3098  2.2165
  856SOL    HW2 2568   1.570   2.603   1.908 -0.9448  0.9062  2.4444
  857SOL     OW 2569   1.389   1.296   2.514  0.0348 -0.3149 -0.4411
  857SOL    HW1 2570   1.362   1.378   2.471  0.7337 -1.1227 -2.5384
  857SOL    HW2 2571   1.478   1.314   2.545  0.3776 -0.3821 -1.3294
  858SOL     OW 2572   2.224   2.564   2.711  0.7108  0.0544 -0.1072
  858SOL    HW1 2573   2.144   2.571   2.658  0.7990 -0.8230 -0.3664
  858SOL    HW2 2574   2.223   2.644   2.765  0.0434  0.4157 -0.6253
  859SOL     OW 2575   1.979   0.757   0.205  0.2319 -0.0448  0.5923
  859SOL    HW1 2576   2.015   0.680   0.161 -0.7966 -0.0750 -0.2214
  859SOL    HW2 2577   2.039   0.772   0.279  0.3064 -1.7734  0.9315
  860SOL     OW 2578   1.752   1.706   2.807  0.5715  0.4846  0.1904
  860SOL    HW1 2579   1.816   1.754   2.860 -0.4797  2.3956 -0.1705
  860SOL    HW2 2580   1.678   1.766   2.798 -0.6357 -1.0422 -0.7338
  861SOL     OW 2581   2.198   2.764   0.842 -0.1961 -0.3145 -0.3663
  861SOL    HW1 2582   2.158   2.694   0.790  0.2563 -0.6092 -0.3150
  861SOL    HW2 2583   2.124   2.805   0.887 -0.2506 -2.1286  1.3008
  862SOL     OW 2584   1.980   2.817   0.992 -0.1985 -0.8614 -0.4697
  862SOL    HW1 2585   1.910   2.837   1.053 -0.0756  1.1804 -0.9229
  862SOL    HW2 2586   1.939   2.764   0.924 -0.7542 -1.5932  0.4237
  863SOL     OW 2587   1.435   1.190   1.452 -0.5734  0.6396  0.1026
  863SOL    HW1 2588   1.414   1.216   1.541  1.7945  1.6041  0.4334
  863SOL    HW2 2589   1.394   1.257   1.397 -1.0545  0.6863  0.5103
  864SOL     OW 2590   2.302   2.774   1.697  0.4488 -0.5086  0.2063
  864SOL    HW1 2591   2.301   2.808   1.786 -0.3279  1.8903 -0.6259
  864SOL    HW2 2592   2.210   2.757   1.677  0.6656 -1.5114  0.0131
  865SOL     OW 2593   2.437   0.885   2.380 -0.6138  0.0898 -0.1930
  865SOL    HW1 2594   2.411   0.962   2.432  1.2688  1.3669 -1.0165
  865SOL    HW2 2595   2.473   0.922   2.300  3.7213 -1.3524  0.8332
  866SOL     OW 2596   0.011   2.813   0.777  0.0626 -0.4446  0.1337
  866SOL    HW1 2597  -0.035   2.893   0.801 -1.8280 -1.2891 -0.5328
  866SOL    HW2 2598   0.023   2.819   0.682  1.3890 -0.2412  0.2864
  867SOL     OW 2599   0.145   2.902   1.010 -0.2535 -0.5587 -0.0674
  867SOL    HW1 2600   0.106   2.868   0.930 -0.0120 -1.4533  0.1876
  867SOL    HW2 2601   0.229   2.857   1.018  1.0182  1.5261 -0.7547
  868SOL     OW 2602   2.371   0.866   0.333 -0.0644 -0.0604 -0.5037
  868SOL    HW1 2603   2.305   0.798   0.320  1.3815 -1.3667 -1.3732
  868SOL    HW2 2604   2.441   0.823   0.382 -0.2009  1.5378  1.2000
  869SOL     OW 2605   1.377   2.448   1.885  0.0142  0.2416 -0.0657
  869SOL    HW1 2606   1.297   2.490   1.854 -1.1388 -0.3984  1.8905
  869SOL    HW2 2607   1.371   2.358   1.851 -0.1622  0.1637  0.1673
  870SOL     OW 2608   0.556   0.983   2.314  0.3480 -0.2410 -0.5357
  870SOL    HW1 2609   0.477   1.012   2.360  0.8918  0.1433  0.1726
  870SOL    HW2 2610   0.524   0.952   2.229 -0.5458  0.0358 -0.3126
  871SOL     OW 2611   0.797   0.638   0.126  0.1180  0.1600  0.5076
  871SOL    HW1 2612   0.829   0.548   0.131 -0.7311 -0.2405 -0.6262
  871SOL    HW2 2613   0.866   0.686   0.079  1.4291  0.5868  2.7174
  872SOL     OW 2614   2.324   0.070   1.158 -0.2758 -0.1467 -0.0004
  872SOL    HW1 2615   2.328   0.160   1.125  0.6156  0.1117  0.7585
  872SOL    HW2 2616   2.249   0.070   1.217 -0.8061 -0.1404 -0.6636
  873SOL     OW 2617   2.319   2.093   1.767  0.1098  0.4560 -0.0630
  873SOL    HW1 2618   2.246   2.085   1.829  0.7996 -1.1557  0.5810
  873SOL    HW2 2619   2.392   2.125   1.820 -0.0641  2.0440 -0.7031
  874SOL     OW 2620   2.034   2.870   1.895 -0.1248  0.0288  0.3781
  874SOL    HW1 2621   2.020   2.880   1.989 -2.3065 -0.0687  0.1209
  874SOL    HW2 2622   1.962   2.814   1.866  1.0466 -0.7229 -1.2098
  875SOL     OW 2623   2.453   1.706   1.818  0.0168 -0.8009 -0.3127
  875SOL    HW1 2624   2.449   1.738   1.908  0.5053 -0.3335 -0.4557
  875SOL    HW2 2625   2.408   1.621   1.821 -0.8433 -0.3475  0.1749
  876SOL     OW 2626   0.834   1.551   2.860 -0.2329  0.1252 -0.2845
  876SOL    HW1 2627   0.856   1.491   2.788 -0.2974  0.8770 -0.9394
  876SOL    HW2 2628   0.780   1.498   2.918  1.8707 -1.2542  0.5207
  877SOL     OW 2629   0.665   1.179   1.434 -0.2596 -0.6589  0.1650
  877SOL    HW1 2630   0.690   1.190   1.342 -1.9819 -2.3741 -0.5770
  877SOL    HW2 2631   0.584   1.229   1.443  0.5632  0.5548  1.1302
  878SOL     OW 2632   2.874   0.345   1.452  0.3488  0.2722 -0.6752
  878SOL    HW1 2633   2.902   0.407   1.386  3.3004  0.3058  0.4786
  878SOL    HW2 2634   2.929   0.268   1.439  0.3688 -0.0773  1.1232
  879SOL     OW 2635   0.519   1.593   1.803  0.0549 -0.0506  0.9455
  879SOL    HW1 2636   0.501   1.663   1.866 -0.7453 -0.1803  0.8697
  879SOL    HW2 2637   0.486   1.514   1.845 -0.1763 -0.1917  0.5035
  880SOL     OW 2638   1.885   2.742   2.748  0.1815  0.0453 -0.0016
  880SOL    HW1 2639   1.936   2.709   2.674  3.0947 -1.5581  2.4722
  880SOL    HW2 2640   1.822   2.672   2.766 -0.5983  0.4800 -0.9521
  881SOL     OW 2641   0.034   0.670   2.694 -0.0521 -0.0069 -0.6369
  881SOL    HW1 2642   0.099   0.634   2.634 -0.3420 -1.8966  0.1203
  881SOL    HW2 2643   0.034   0.610   2.768 -1.5968  0.7980  0.0589
  882SOL     OW 2644   0.145   2.774   0.075  0.4724 -0.4218 -0.1322
  882SOL    HW1 2645   0.227   2.796   0.032 -0.3177  0.8251 -1.0667
  882SOL    HW2 2646   0.132   2.843   0.140 -0.6040  0.3213 -1.0996
  883SOL     OW 2647   2.361   1.461   1.848  0.0202  0.0675  0.1682
  883SOL    HW1 2648   2.338   1.430   1.936 -0.1321  0.7795  0.3868
  883SOL    HW2 2649   2.334   1.390   1.790  0.3322 -0.5050  0.7163
  884SOL     OW 2650   2.109   1.726   0.509  0.0767  0.0108  0.3166
  884SOL    HW1 2651   2.079   1.651   0.562  1.2102 -0.2650  0.6118
  884SOL    HW2 2652   2.194   1.749   0.547  0.4169  0.5086 -0.7092
   2.96572    2.96572    2.96572    0.00000    0.00000    0.00000    0.00000    0.00000    0.00000
