MOL
4536
    1GRA      C    1   0.142   0.061  12.500  0.0000  0.0000  0.0000
    1GRA      C    2   0.284   0.061  12.500 -0.0000  0.0000  0.0000
    1GRA      C    3   0.567   0.061  12.500  0.0000  0.0000  0.0000
    1GRA      C    4   0.709   0.061  12.500 -0.0000  0.0000  0.0000
    1GRA      C    5   0.993   0.061  12.500  0.0000  0.0000  0.0000
    1GRA      C    6   1.135   0.061  12.500 -0.0000 -0.0000  0.0000
    1GRA      C    7   1.418   0.061  12.500  0.0000  0.0000  0.0000
    1GRA      C    8   1.560   0.061  12.500 -0.0000  0.0000  0.0000
    1GRA      C    9   1.844   0.061  12.500  0.0000  0.0000  0.0000
    1GRA      C   10   1.985   0.061  12.500 -0.0000  0.0000  0.0000
    1GRA      C   11   2.269   0.061  12.500  0.0000  0.0000  0.0000
    1GRA      C   12   2.411   0.061  12.500 -0.0000  0.0000  0.0000
    1GRA      C   13   2.694   0.061  12.500  0.0000 -0.0000  0.0000
    1GRA      C   14   2.836   0.061  12.500 -0.0000  0.0000  0.0000
    1GRA      C   15   3.120   0.061  12.500  0.0000  0.0000  0.0000
    1GRA      C   16   3.262   0.061  12.500 -0.0000  0.0000  0.0000
    1GRA      C   17   3.545   0.061  12.500  0.0000  0.0000  0.0000
    1GRA      C   18   3.687   0.061  12.500 -0.0000  0.0000  0.0000
    1GRA      C   19   3.971   0.061  12.500  0.0000  0.0000  0.0000
    1GRA      C   20   4.112   0.061  12.500 -0.0000  0.0000  0.0000
    1GRA      C   21   4.396   0.061  12.500  0.0000  0.0000  0.0000
    1GRA      C   22   4.538   0.061  12.500 -0.0000  0.0000 -0.0000
    1GRA      C   23   4.821   0.061  12.500  0.0000 -0.0000 -0.0000
    1GRA      C   24   4.963   0.061  12.500 -0.0000  0.0000  0.0000
    1GRA      C   25   5.247   0.061  12.500  0.0000  0.0000 -0.0000
    1GRA      C   26   5.389   0.061  12.500 -0.0000 -0.0000 -0.0000
    1GRA      C   27   5.672   0.061  12.500  0.0000  0.0000  0.0000
    1GRA      C   28   5.814   0.061  12.500 -0.0000  0.0000 -0.0000
    1GRA      C   29   6.098   0.061  12.500  0.0000  0.0000  0.0000
    1GRA      C   30   6.239   0.061  12.500 -0.0000  0.0000  0.0000
    1GRA      C   31   6.523   0.061  12.500  0.0000  0.0000 -0.0000
    1GRA      C   32   6.665   0.061  12.500 -0.0000  0.0000  0.0000
    1GRA      C   33   6.948   0.061  12.500  0.0000 -0.0000  0.0000
    1GRA      C   34   7.090   0.061  12.500 -0.0000  0.0000 -0.0000
    1GRA      C   35   7.374   0.061  12.500  0.0000  0.0000 -0.0000
    1GRA      C   36   7.516   0.061  12.500 -0.0000  0.0000  0.0000
    1GRA      C   37   7.799   0.061  12.500  0.0000  0.0000 -0.0000
    1GRA      C   38   7.941   0.061  12.500 -0.0000  0.0000  0.0000
    1GRA      C   39   8.225   0.061  12.500  0.0000  0.0000  0.0000
    1GRA      C   40   8.366   0.061  12.500 -0.0000  0.0000  0.0000
    1GRA      C   41   8.650   0.061  12.500  0.0000  0.0000  0.0000
    1GRA      C   42   8.792   0.061  12.500 -0.0000  0.0000  0.0000
    1GRA      C   43   9.075   0.061  12.500  0.0000 -0.0000  0.0000
    1GRA      C   44   9.217   0.061  12.500 -0.0000  0.0000  0.0000
    1GRA      C   45   9.501   0.061  12.500  0.0000  0.0000  0.0000
    1GRA      C   46   9.643   0.061  12.500 -0.0000  0.0000  0.0000
    1GRA      C   47   9.926   0.061  12.500  0.0000  0.0000  0.0000
    1GRA      C   48  10.068   0.061  12.500 -0.0000  0.0000  0.0000
    1GRA      C   49   0.071   0.184  12.500  0.0000 -0.0000  0.0000
    1GRA      C   50   0.355   0.184  12.500 -0.0000 -0.0000  0.0000
    1GRA      C   51   0.496   0.184  12.500  0.0000 -0.0000  0.0000
    1GRA      C   52   0.780   0.184  12.500 -0.0000 -0.0000  0.0000
    1GRA      C   53   0.922   0.184  12.500  0.0000 -0.0000  0.0000
    1GRA      C   54   1.205   0.184  12.500  0.0000 -0.0000  0.0000
    1GRA      C   55   1.347   0.184  12.500  0.0000 -0.0000  0.0000
    1GRA      C   56   1.631   0.184  12.500 -0.0000 -0.0000  0.0000
    1GRA      C   57   1.773   0.184  12.500  0.0000 -0.0000  0.0000
    1GRA      C   58   2.056   0.184  12.500 -0.0000 -0.0000  0.0000
    1GRA      C   59   2.198   0.184  12.500  0.0000 -0.0000  0.0000
    1GRA      C   60   2.482   0.184  12.500 -0.0000 -0.0000  0.0000
    1GRA      C   61   2.624   0.184  12.500 -0.0000 -0.0000  0.0000
    1GRA      C   62   2.907   0.184  12.500 -0.0000 -0.0000  0.0000
    1GRA      C   63   3.049   0.184  12.500  0.0000 -0.0000  0.0000
    1GRA      C   64   3.333   0.184  12.500 -0.0000 -0.0000  0.0000
    1GRA      C   65   3.474   0.184  12.500  0.0000 -0.0000  0.0000
    1GRA      C   66   3.758   0.184  12.500 -0.0000 -0.0000  0.0000
    1GRA      C   67   3.900   0.184  12.500  0.0000 -0.0000  0.0000
    1GRA      C   68   4.183   0.184  12.500 -0.0000 -0.0000  0.0000
    1GRA      C   69   4.325   0.184  12.500  0.0000 -0.0000  0.0000
    1GRA      C   70   4.609   0.184  12.500 -0.0000 -0.0000  0.0000
    1GRA      C   71   4.751   0.184  12.500 -0.0000 -0.0000 -0.0000
    1GRA      C   72   5.034   0.184  12.500 -0.0000 -0.0000 -0.0000
    1GRA      C   73   5.176   0.184  12.500  0.0000 -0.0000  0.0000
    1GRA      C   74   5.459   0.184  12.500  0.0000 -0.0000  0.0000
    1GRA      C   75   5.601   0.184  12.500  0.0000 -0.0000 -0.0000
    1GRA      C   76   5.885   0.184  12.500 -0.0000 -0.0000  0.0000
    1GRA      C   77   6.027   0.184  12.500  0.0000 -0.0000  0.0000
    1GRA      C   78   6.310   0.184  12.500 -0.0000 -0.0000  0.0000
    1GRA      C   79   6.452   0.184  12.500  0.0000 -0.0000 -0.0000
    1GRA      C   80   6.736   0.184  12.500 -0.0000 -0.0000  0.0000
    1GRA      C   81   6.878   0.184  12.500 -0.0000 -0.0000 -0.0000
    1GRA      C   82   7.161   0.184  12.500 -0.0000 -0.0000  0.0000
    1GRA      C   83   7.303   0.184  12.500  0.0000 -0.0000 -0.0000
    1GRA      C   84   7.587   0.184  12.500 -0.0000 -0.0000 -0.0000
    1GRA      C   85   7.728   0.184  12.500  0.0000 -0.0000 -0.0000
    1GRA      C   86   8.012   0.184  12.500 -0.0000 -0.0000  0.0000
    1GRA      C   87   8.154   0.184  12.500  0.0000 -0.0000 -0.0000
    1GRA      C   88   8.437   0.184  12.500 -0.0000 -0.0000  0.0000
    1GRA      C   89   8.579   0.184  12.500  0.0000 -0.0000  0.0000
    1GRA      C   90   8.863   0.184  12.500 -0.0000 -0.0000  0.0000
    1GRA      C   91   9.005   0.184  12.500 -0.0000 -0.0000  0.0000
    1GRA      C   92   9.288   0.184  12.500 -0.0000 -0.0000  0.0000
    1GRA      C   93   9.430   0.184  12.500  0.0000 -0.0000  0.0000
    1GRA      C   94   9.714   0.184  12.500 -0.0000 -0.0000  0.0000
    1GRA      C   95   9.855   0.184  12.500  0.0000 -0.0000  0.0000
    1GRA      C   96  10.139   0.184  12.500 -0.0000 -0.0000  0.0000
    1GRA      C   97   0.142   0.307  12.500 -0.0000  0.0000  0.0000
    1GRA      C   98   0.284   0.307  12.500  0.0000  0.0000  0.0000
    1GRA      C   99   0.567   0.307  12.500 -0.0000  0.0000  0.0000
    1GRA      C  100   0.709   0.307  12.500  0.0000  0.0000  0.0000
    1GRA      C  101   0.993   0.307  12.500 -0.0000  0.0000  0.0000
    1GRA      C  102   1.135   0.307  12.500 -0.0000  0.0000  0.0000
    1GRA      C  103   1.418   0.307  12.500 -0.0000  0.0000  0.0000
    1GRA      C  104   1.560   0.307  12.500  0.0000  0.0000  0.0000
    1GRA      C  105   1.844   0.307  12.500 -0.0000  0.0000  0.0000
    1GRA      C  106   1.985   0.307  12.500  0.0000  0.0000  0.0000
    1GRA      C  107   2.269   0.307  12.500 -0.0000  0.0000  0.0000
    1GRA      C  108   2.411   0.307  12.500  0.0000  0.0000  0.0000
    1GRA      C  109   2.694   0.307  12.500  0.0000  0.0000  0.0000
    1GRA      C  110   2.836   0.307  12.500  0.0000  0.0000  0.0000
    1GRA      C  111   3.120   0.307  12.500 -0.0000  0.0000  0.0000
    1GRA      C  112   3.262   0.307  12.500  0.0000  0.0000  0.0000
    1GRA      C  113   3.545   0.307  12.500 -0.0000  0.0000  0.0000
    1GRA      C  114   3.687   0.307  12.500  0.0000  0.0000  0.0000
    1GRA      C  115   3.971   0.307  12.500 -0.0000  0.0000  0.0000
    1GRA      C  116   4.112   0.307  12.500  0.0000  0.0000  0.0000
    1GRA      C  117   4.396   0.307  12.500 -0.0000  0.0000  0.0000
    1GRA      C  118   4.538   0.307  12.500  0.0000  0.0000 -0.0000
    1GRA      C  119   4.821   0.307  12.500  0.0000  0.0000 -0.0000
    1GRA      C  120   4.963   0.307  12.500  0.0000  0.0000  0.0000
    1GRA      C  121   5.247   0.307  12.500 -0.0000  0.0000  0.0000
    1GRA      C  122   5.389   0.307  12.500 -0.0000  0.0000  0.0000
    1GRA      C  123   5.672   0.307  12.500 -0.0000  0.0000 -0.0000
    1GRA      C  124   5.814   0.307  12.500  0.0000  0.0000 -0.0000
    1GRA      C  125   6.098   0.307  12.500 -0.0000  0.0000  0.0000
    1GRA      C  126   6.239   0.307  12.500  0.0000  0.0000  0.0000
    1GRA      C  127   6.523   0.307  12.500 -0.0000  0.0000  0.0000
    1GRA      C  128   6.665   0.307  12.500  0.0000  0.0000  0.0000
    1GRA      C  129   6.948   0.307  12.500  0.0000  0.0000 -0.0000
    1GRA      C  130   7.090   0.307  12.500  0.0000  0.0000  0.0000
    1GRA      C  131   7.374   0.307  12.500 -0.0000  0.0000 -0.0000
    1GRA      C  132   7.516   0.307  12.500  0.0000  0.0000  0.0000
    1GRA      C  133   7.799   0.307  12.500 -0.0000  0.0000 -0.0000
    1GRA      C  134   7.941   0.307  12.500  0.0000  0.0000  0.0000
    1GRA      C  135   8.225   0.307  12.500 -0.0000  0.0000 -0.0000
    1GRA      C  136   8.366   0.307  12.500  0.0000  0.0000 -0.0000
    1GRA      C  137   8.650   0.307  12.500 -0.0000  0.0000  0.0000
    1GRA      C  138   8.792   0.307  12.500  0.0000  0.0000  0.0000
    1GRA      C  139   9.075   0.307  12.500  0.0000  0.0000  0.0000
    1GRA      C  140   9.217   0.307  12.500  0.0000  0.0000  0.0000
    1GRA      C  141   9.501   0.307  12.500 -0.0000  0.0000  0.0000
    1GRA      C  142   9.643   0.307  12.500  0.0000  0.0000  0.0000
    1GRA      C  143   9.926   0.307  12.500 -0.0000  0.0000  0.0000
    1GRA      C  144  10.068   0.307  12.500  0.0000  0.0000  0.0000
    1GRA      C  145   0.071   0.429  12.500  0.0000 -0.0000  0.0000
    1GRA      C  146   0.355   0.429  12.500 -0.0000 -0.0000  0.0000
    1GRA      C  147   0.496   0.429  12.500  0.0000 -0.0000  0.0000
    1GRA      C  148   0.780   0.429  12.500 -0.0000 -0.0000  0.0000
    1GRA      C  149   0.922   0.429  12.500  0.0000 -0.0000  0.0000
    1GRA      C  150   1.205   0.429  12.500  0.0000 -0.0000  0.0000
    1GRA      C  151   1.347   0.429  12.500  0.0000 -0.0000  0.0000
    1GRA      C  152   1.631   0.429  12.500 -0.0000 -0.0000  0.0000
    1GRA      C  153   1.773   0.429  12.500  0.0000 -0.0000  0.0000
    1GRA      C  154   2.056   0.429  12.500 -0.0000 -0.0000  0.0000
    1GRA      C  155   2.198   0.429  12.500  0.0000 -0.0000  0.0000
    1GRA      C  156   2.482   0.429  12.500 -0.0000 -0.0000  0.0000
    1GRA      C  157   2.624   0.429  12.500 -0.0000 -0.0000  0.0000
    1GRA      C  158   2.907   0.429  12.500 -0.0000 -0.0000  0.0000
    1GRA      C  159   3.049   0.429  12.500  0.0000 -0.0000  0.0000
    1GRA      C  160   3.333   0.429  12.500 -0.0000 -0.0000  0.0000
    1GRA      C  161   3.474   0.429  12.500  0.0000 -0.0000  0.0000
    1GRA      C  162   3.758   0.429  12.500 -0.0000 -0.0000  0.0000
    1GRA      C  163   3.900   0.429  12.500  0.0000 -0.0000  0.0000
    1GRA      C  164   4.183   0.429  12.500 -0.0000 -0.0000  0.0000
    1GRA      C  165   4.325   0.429  12.500  0.0000 -0.0000 -0.0000
    1GRA      C  166   4.609   0.429  12.500 -0.0000 -0.0000 -0.0000
    1GRA      C  167   4.751   0.429  12.500 -0.0000 -0.0000  0.0000
    1GRA      C  168   5.034   0.429  12.500 -0.0000 -0.0000  0.0000
    1GRA      C  169   5.176   0.429  12.500  0.0000 -0.0000 -0.0000
    1GRA      C  170   5.459   0.429  12.500  0.0000 -0.0000  0.0000
    1GRA      C  171   5.601   0.429  12.500  0.0000 -0.0000 -0.0000
    1GRA      C  172   5.885   0.429  12.500 -0.0000 -0.0000  0.0000
    1GRA      C  173   6.027   0.429  12.500  0.0000 -0.0000 -0.0000
    1GRA      C  174   6.310   0.429  12.500 -0.0000 -0.0000  0.0000
    1GRA      C  175   6.452   0.429  12.500  0.0000 -0.0000  0.0000
    1GRA      C  176   6.736   0.429  12.500 -0.0000 -0.0000  0.0000
    1GRA      C  177   6.878   0.429  12.500 -0.0000 -0.0000  0.0000
    1GRA      C  178   7.161   0.429  12.500 -0.0000 -0.0000 -0.0000
    1GRA      C  179   7.303   0.429  12.500  0.0000 -0.0000 -0.0000
    1GRA      C  180   7.587   0.429  12.500 -0.0000 -0.0000  0.0000
    1GRA      C  181   7.728   0.429  12.500  0.0000 -0.0000  0.0000
    1GRA      C  182   8.012   0.429  12.500 -0.0000 -0.0000  0.0000
    1GRA      C  183   8.154   0.429  12.500  0.0000 -0.0000  0.0000
    1GRA      C  184   8.437   0.429  12.500 -0.0000 -0.0000  0.0000
    1GRA      C  185   8.579   0.429  12.500  0.0000 -0.0000 -0.0000
    1GRA      C  186   8.863   0.429  12.500 -0.0000 -0.0000  0.0000
    1GRA      C  187   9.005   0.429  12.500 -0.0000 -0.0000  0.0000
    1GRA      C  188   9.288   0.429  12.500 -0.0000 -0.0000  0.0000
    1GRA      C  189   9.430   0.429  12.500  0.0000 -0.0000  0.0000
    1GRA      C  190   9.714   0.429  12.500 -0.0000 -0.0000  0.0000
    1GRA      C  191   9.855   0.429  12.500  0.0000 -0.0000  0.0000
    1GRA      C  192  10.139   0.429  12.500 -0.0000 -0.0000  0.0000
    1GRA      C  193   0.142   0.552  12.500 -0.0000  0.0000  0.0000
    1GRA      C  194   0.284   0.552  12.500  0.0000  0.0000  0.0000
    1GRA      C  195   0.567   0.552  12.500 -0.0000  0.0000  0.0000
    1GRA      C  196   0.709   0.552  12.500  0.0000  0.0000  0.0000
    1GRA      C  197   0.993   0.552  12.500 -0.0000  0.0000  0.0000
    1GRA      C  198   1.135   0.552  12.500 -0.0000  0.0000  0.0000
    1GRA      C  199   1.418   0.552  12.500 -0.0000  0.0000  0.0000
    1GRA      C  200   1.560   0.552  12.500  0.0000  0.0000  0.0000
    1GRA      C  201   1.844   0.552  12.500 -0.0000  0.0000  0.0000
    1GRA      C  202   1.985   0.552  12.500  0.0000  0.0000  0.0000
    1GRA      C  203   2.269   0.552  12.500 -0.0000  0.0000  0.0000
    1GRA      C  204   2.411   0.552  12.500  0.0000  0.0000  0.0000
    1GRA      C  205   2.694   0.552  12.500  0.0000  0.0000  0.0000
    1GRA      C  206   2.836   0.552  12.500  0.0000  0.0000  0.0000
    1GRA      C  207   3.120   0.552  12.500 -0.0000  0.0000  0.0000
    1GRA      C  208   3.262   0.552  12.500  0.0000  0.0000  0.0000
    1GRA      C  209   3.545   0.552  12.500 -0.0000  0.0000  0.0000
    1GRA      C  210   3.687   0.552  12.500  0.0000  0.0000  0.0000
    1GRA      C  211   3.971   0.552  12.500 -0.0000  0.0000  0.0000
    1GRA      C  212   4.112   0.552  12.500  0.0000  0.0000 -0.0000
    1GRA      C  213   4.396   0.552  12.500 -0.0000  0.0000 -0.0000
    1GRA      C  214   4.538   0.552  12.500  0.0000  0.0000  0.0000
    1GRA      C  215   4.821   0.552  12.500  0.0000  0.0000  0.0000
    1GRA      C  216   4.963   0.552  12.500  0.0000  0.0000 -0.0000
    1GRA      C  217   5.247   0.552  12.500 -0.0000  0.0000 -0.0000
    1GRA      C  218   5.389   0.552  12.500 -0.0000  0.0000 -0.0000
    1GRA      C  219   5.672   0.552  12.500 -0.0000  0.0000 -0.0000
    1GRA      C  220   5.814   0.552  12.500  0.0000  0.0000  0.0000
    1GRA      C  221   6.098   0.552  12.500 -0.0000  0.0000  0.0000
    1GRA      C  222   6.239   0.552  12.500  0.0000  0.0000 -0.0000
    1GRA      C  223   6.523   0.552  12.500 -0.0000  0.0000  0.0000
    1GRA      C  224   6.665   0.552  12.500  0.0000  0.0000  0.0000
    1GRA      C  225   6.948   0.552  12.500  0.0000  0.0000 -0.0000
    1GRA      C  226   7.090   0.552  12.500  0.0000  0.0000  0.0000
    1GRA      C  227   7.374   0.552  12.500 -0.0000  0.0000  0.0000
    1GRA      C  228   7.516   0.552  12.500  0.0000  0.0000  0.0000
    1GRA      C  229   7.799   0.552  12.500 -0.0000  0.0000 -0.0000
    1GRA      C  230   7.941   0.552  12.500  0.0000  0.0000  0.0000
    1GRA      C  231   8.225   0.552  12.500 -0.0000  0.0000 -0.0000
    1GRA      C  232   8.366   0.552  12.500  0.0000  0.0000 -0.0000
    1GRA      C  233   8.650   0.552  12.500 -0.0000  0.0000 -0.0000
    1GRA      C  234   8.792   0.552  12.500  0.0000  0.0000  0.0000
    1GRA      C  235   9.075   0.552  12.500  0.0000  0.0000  0.0000
    1GRA      C  236   9.217   0.552  12.500  0.0000  0.0000  0.0000
    1GRA      C  237   9.501   0.552  12.500 -0.0000  0.0000  0.0000
    1GRA      C  238   9.643   0.552  12.500  0.0000  0.0000  0.0000
    1GRA      C  239   9.926   0.552  12.500 -0.0000  0.0000  0.0000
    1GRA      C  240  10.068   0.552  12.500  0.0000  0.0000  0.0000
    1GRA      C  241   0.071   0.675  12.500  0.0000 -0.0000  0.0000
    1GRA      C  242   0.355   0.675  12.500 -0.0000 -0.0000  0.0000
    1GRA      C  243   0.496   0.675  12.500  0.0000 -0.0000  0.0000
    1GRA      C  244   0.780   0.675  12.500 -0.0000 -0.0000  0.0000
    1GRA      C  245   0.922   0.675  12.500 -0.0000 -0.0000  0.0000
    1GRA      C  246   1.205   0.675  12.500  0.0000 -0.0000  0.0000
    1GRA      C  247   1.347   0.675  12.500  0.0000 -0.0000  0.0000
    1GRA      C  248   1.631   0.675  12.500 -0.0000 -0.0000  0.0000
    1GRA      C  249   1.773   0.675  12.500 -0.0000 -0.0000  0.0000
    1GRA      C  250   2.056   0.675  12.500  0.0000 -0.0000  0.0000
    1GRA      C  251   2.198   0.675  12.500  0.0000 -0.0000  0.0000
    1GRA      C  252   2.482   0.675  12.500 -0.0000 -0.0000  0.0000
    1GRA      C  253   2.624   0.675  12.500 -0.0000 -0.0000  0.0000
    1GRA      C  254   2.907   0.675  12.500  0.0000 -0.0000  0.0000
    1GRA      C  255   3.049   0.675  12.500  0.0000 -0.0000  0.0000
    1GRA      C  256   3.333   0.675  12.500 -0.0000 -0.0000  0.0000
    1GRA      C  257   3.474   0.675  12.500  0.0000 -0.0000  0.0000
    1GRA      C  258   3.758   0.675  12.500 -0.0000 -0.0000  0.0000
    1GRA      C  259   3.900   0.675  12.500 -0.0000 -0.0000  0.0000
    1GRA      C  260   4.183   0.675  12.500  0.0000 -0.0000  0.0000
    1GRA      C  261   4.325   0.675  12.500  0.0000 -0.0000 -0.0000
    1GRA      C  262   4.609   0.675  12.500 -0.0000 -0.0000  0.0000
    1GRA      C  263   4.751   0.675  12.500 -0.0000 -0.0000  0.0000
    1GRA      C  264   5.034   0.675  12.500  0.0000 -0.0000  0.0000
    1GRA      C  265   5.176   0.675  12.500 -0.0000 -0.0000  0.0000
    1GRA      C  266   5.459   0.675  12.500  0.0000 -0.0000  0.0000
    1GRA      C  267   5.601   0.675  12.500  0.0000 -0.0000 -0.0000
    1GRA      C  268   5.885   0.675  12.500 -0.0000 -0.0000  0.0000
    1GRA      C  269   6.027   0.675  12.500 -0.0000 -0.0000 -0.0000
    1GRA      C  270   6.310   0.675  12.500  0.0000 -0.0000 -0.0000
    1GRA      C  271   6.452   0.675  12.500  0.0000 -0.0000 -0.0000
    1GRA      C  272   6.736   0.675  12.500 -0.0000 -0.0000  0.0000
    1GRA      C  273   6.878   0.675  12.500 -0.0000 -0.0000  0.0000
    1GRA      C  274   7.161   0.675  12.500  0.0000 -0.0000  0.0000
    1GRA      C  275   7.303   0.675  12.500  0.0000 -0.0000  0.0000
    1GRA      C  276   7.587   0.675  12.500 -0.0000 -0.0000 -0.0000
    1GRA      C  277   7.728   0.675  12.500  0.0000 -0.0000  0.0000
    1GRA      C  278   8.012   0.675  12.500 -0.0000 -0.0000  0.0000
    1GRA      C  279   8.154   0.675  12.500 -0.0000 -0.0000  0.0000
    1GRA      C  280   8.437   0.675  12.500  0.0000 -0.0000  0.0000
    1GRA      C  281   8.579   0.675  12.500  0.0000 -0.0000 -0.0000
    1GRA      C  282   8.863   0.675  12.500 -0.0000 -0.0000  0.0000
    1GRA      C  283   9.005   0.675  12.500 -0.0000 -0.0000 -0.0000
    1GRA      C  284   9.288   0.675  12.500  0.0000 -0.0000  0.0000
    1GRA      C  285   9.430   0.675  12.500  0.0000 -0.0000  0.0000
    1GRA      C  286   9.714   0.675  12.500 -0.0000 -0.0000  0.0000
    1GRA      C  287   9.855   0.675  12.500  0.0000 -0.0000  0.0000
    1GRA      C  288  10.139   0.675  12.500 -0.0000 -0.0000  0.0000
    1GRA      C  289   0.142   0.798  12.500 -0.0000 -0.0000  0.0000
    1GRA      C  290   0.284   0.798  12.500  0.0000 -0.0000  0.0000
    1GRA      C  291   0.567   0.798  12.500 -0.0000 -0.0000  0.0000
    1GRA      C  292   0.709   0.798  12.500  0.0000 -0.0000  0.0000
    1GRA      C  293   0.993   0.798  12.500 -0.0000 -0.0000  0.0000
    1GRA      C  294   1.135   0.798  12.500 -0.0000 -0.0000  0.0000
    1GRA      C  295   1.418   0.798  12.500 -0.0000 -0.0000  0.0000
    1GRA      C  296   1.560   0.798  12.500  0.0000 -0.0000  0.0000
    1GRA      C  297   1.844   0.798  12.500 -0.0000 -0.0000  0.0000
    1GRA      C  298   1.985   0.798  12.500  0.0000 -0.0000  0.0000
    1GRA      C  299   2.269   0.798  12.500 -0.0000 -0.0000  0.0000
    1GRA      C  300   2.411   0.798  12.500  0.0000 -0.0000  0.0000
    1GRA      C  301   2.694   0.798  12.500  0.0000 -0.0000  0.0000
    1GRA      C  302   2.836   0.798  12.500  0.0000 -0.0000  0.0000
    1GRA      C  303   3.120   0.798  12.500 -0.0000 -0.0000  0.0000
    1GRA      C  304   3.262   0.798  12.500  0.0000 -0.0000  0.0000
    1GRA      C  305   3.545   0.798  12.500 -0.0000 -0.0000  0.0000
    1GRA      C  306   3.687   0.798  12.500  0.0000 -0.0000  0.0000
    1GRA      C  307   3.971   0.798  12.500 -0.0000 -0.0000  0.0000
    1GRA      C  308   4.112   0.798  12.500  0.0000 -0.0000  0.0000
    1GRA      C  309   4.396   0.798  12.500 -0.0000 -0.0000  0.0000
    1GRA      C  310   4.538   0.798  12.500  0.0000 -0.0000 -0.0000
    1GRA      C  311   4.821   0.798  12.500  0.0000 -0.0000  0.0000
    1GRA      C  312   4.963   0.798  12.500  0.0000 -0.0000  0.0000
    1GRA      C  313   5.247   0.798  12.500 -0.0000 -0.0000 -0.0000
    1GRA      C  314   5.389   0.798  12.500 -0.0000 -0.0000 -0.0000
    1GRA      C  315   5.672   0.798  12.500 -0.0000 -0.0000  0.0000
    1GRA      C  316   5.814   0.798  12.500  0.0000 -0.0000 -0.0000
    1GRA      C  317   6.098   0.798  12.500 -0.0000 -0.0000  0.0000
    1GRA      C  318   6.239   0.798  12.500  0.0000 -0.0000 -0.0000
    1GRA      C  319   6.523   0.798  12.500 -0.0000 -0.0000  0.0000
    1GRA      C  320   6.665   0.798  12.500  0.0000 -0.0000 -0.0000
    1GRA      C  321   6.948   0.798  12.500  0.0000 -0.0000  0.0000
    1GRA      C  322   7.090   0.798  12.500  0.0000 -0.0000  0.0000
    1GRA      C  323   7.374   0.798  12.500 -0.0000 -0.0000 -0.0000
    1GRA      C  324   7.516   0.798  12.500  0.0000 -0.0000  0.0000
    1GRA      C  325   7.799   0.798  12.500 -0.0000 -0.0000  0.0000
    1GRA      C  326   7.941   0.798  12.500  0.0000 -0.0000 -0.0000
    1GRA      C  327   8.225   0.798  12.500 -0.0000 -0.0000  0.0000
    1GRA      C  328   8.366   0.798  12.500  0.0000 -0.0000 -0.0000
    1GRA      C  329   8.650   0.798  12.500 -0.0000 -0.0000 -0.0000
    1GRA      C  330   8.792   0.798  12.500  0.0000 -0.0000  0.0000
    1GRA      C  331   9.075   0.798  12.500  0.0000 -0.0000 -0.0000
    1GRA      C  332   9.217   0.798  12.500  0.0000 -0.0000 -0.0000
    1GRA      C  333   9.501   0.798  12.500 -0.0000 -0.0000 -0.0000
    1GRA      C  334   9.643   0.798  12.500  0.0000 -0.0000  0.0000
    1GRA      C  335   9.926   0.798  12.500 -0.0000 -0.0000  0.0000
    1GRA      C  336  10.068   0.798  12.500  0.0000 -0.0000  0.0000
    1GRA      C  337   0.071   0.921  12.500  0.0000  0.0000  0.0000
    1GRA      C  338   0.355   0.921  12.500 -0.0000  0.0000  0.0000
    1GRA      C  339   0.496   0.921  12.500  0.0000  0.0000  0.0000
    1GRA      C  340   0.780   0.921  12.500 -0.0000  0.0000  0.0000
    1GRA      C  341   0.922   0.921  12.500  0.0000  0.0000  0.0000
    1GRA      C  342   1.205   0.921  12.500  0.0000  0.0000  0.0000
    1GRA      C  343   1.347   0.921  12.500  0.0000  0.0000  0.0000
    1GRA      C  344   1.631   0.921  12.500 -0.0000  0.0000  0.0000
    1GRA      C  345   1.773   0.921  12.500  0.0000  0.0000  0.0000
    1GRA      C  346   2.056   0.921  12.500 -0.0000  0.0000  0.0000
    1GRA      C  347   2.198   0.921  12.500  0.0000  0.0000  0.0000
    1GRA      C  348   2.482   0.921  12.500 -0.0000  0.0000  0.0000
    1GRA      C  349   2.624   0.921  12.500 -0.0000  0.0000  0.0000
    1GRA      C  350   2.907   0.921  12.500 -0.0000  0.0000  0.0000
    1GRA      C  351   3.049   0.921  12.500  0.0000  0.0000  0.0000
    1GRA      C  352   3.333   0.921  12.500 -0.0000  0.0000  0.0000
    1GRA      C  353   3.474   0.921  12.500  0.0000  0.0000  0.0000
    1GRA      C  354   3.758   0.921  12.500 -0.0000  0.0000  0.0000
    1GRA      C  355   3.900   0.921  12.500  0.0000  0.0000 -0.0000
    1GRA      C  356   4.183   0.921  12.500 -0.0000  0.0000  0.0000
    1GRA      C  357   4.325   0.921  12.500  0.0000  0.0000 -0.0000
    1GRA      C  358   4.609   0.921  12.500 -0.0000  0.0000  0.0000
    1GRA      C  359   4.751   0.921  12.500 -0.0000  0.0000 -0.0000
    1GRA      C  360   5.034   0.921  12.500 -0.0000  0.0000  0.0000
    1GRA      C  361   5.176   0.921  12.500  0.0000  0.0000 -0.0000
    1GRA      C  362   5.459   0.921  12.500  0.0000  0.0000  0.0000
    1GRA      C  363   5.601   0.921  12.500  0.0000  0.0000 -0.0000
    1GRA      C  364   5.885   0.921  12.500 -0.0000  0.0000  0.0000
    1GRA      C  365   6.027   0.921  12.500  0.0000  0.0000 -0.0000
    1GRA      C  366   6.310   0.921  12.500 -0.0000  0.0000 -0.0000
    1GRA      C  367   6.452   0.921  12.500  0.0000  0.0000  0.0000
    1GRA      C  368   6.736   0.921  12.500 -0.0000  0.0000  0.0000
    1GRA      C  369   6.878   0.921  12.500 -0.0000  0.0000  0.0000
    1GRA      C  370   7.161   0.921  12.500 -0.0000  0.0000 -0.0000
    1GRA      C  371   7.303   0.921  12.500  0.0000  0.0000 -0.0000
    1GRA      C  372   7.587   0.921  12.500 -0.0000  0.0000 -0.0000
    1GRA      C  373   7.728   0.921  12.500  0.0000  0.0000  0.0000
    1GRA      C  374   8.012   0.921  12.500 -0.0000  0.0000  0.0000
    1GRA      C  375   8.154   0.921  12.500  0.0000  0.0000 -0.0000
    1GRA      C  376   8.437   0.921  12.500 -0.0000  0.0000 -0.0000
    1GRA      C  377   8.579   0.921  12.500  0.0000  0.0000  0.0000
    1GRA      C  378   8.863   0.921  12.500 -0.0000  0.0000  0.0000
    1GRA      C  379   9.005   0.921  12.500 -0.0000  0.0000  0.0000
    1GRA      C  380   9.288   0.921  12.500 -0.0000  0.0000  0.0000
    1GRA      C  381   9.430   0.921  12.500  0.0000  0.0000 -0.0000
    1GRA      C  382   9.714   0.921  12.500 -0.0000  0.0000 -0.0000
    1GRA      C  383   9.855   0.921  12.500  0.0000  0.0000 -0.0000
    1GRA      C  384  10.139   0.921  12.500 -0.0000  0.0000 -0.0000
    1GRA      C  385   0.142   1.043  12.500 -0.0000 -0.0000  0.0000
    1GRA      C  386   0.284   1.043  12.500  0.0000 -0.0000  0.0000
    1GRA      C  387   0.567   1.043  12.500 -0.0000 -0.0000  0.0000
    1GRA      C  388   0.709   1.043  12.500  0.0000 -0.0000  0.0000
    1GRA      C  389   0.993   1.043  12.500 -0.0000 -0.0000  0.0000
    1GRA      C  390   1.135   1.043  12.500 -0.0000 -0.0000  0.0000
    1GRA      C  391   1.418   1.043  12.500 -0.0000 -0.0000  0.0000
    1GRA      C  392   1.560   1.043  12.500  0.0000 -0.0000  0.0000
    1GRA      C  393   1.844   1.043  12.500 -0.0000 -0.0000  0.0000
    1GRA      C  394   1.985   1.043  12.500  0.0000 -0.0000  0.0000
    1GRA      C  395   2.269   1.043  12.500 -0.0000 -0.0000  0.0000
    1GRA      C  396   2.411   1.043  12.500  0.0000 -0.0000  0.0000
    1GRA      C  397   2.694   1.043  12.500  0.0000 -0.0000  0.0000
    1GRA      C  398   2.836   1.043  12.500  0.0000 -0.0000  0.0000
    1GRA      C  399   3.120   1.043  12.500 -0.0000 -0.0000  0.0000
    1GRA      C  400   3.262   1.043  12.500  0.0000 -0.0000  0.0000
    1GRA      C  401   3.545   1.043  12.500 -0.0000 -0.0000  0.0000
    1GRA      C  402   3.687   1.043  12.500  0.0000 -0.0000 -0.0000
    1GRA      C  403   3.971   1.043  12.500 -0.0000 -0.0000  0.0000
    1GRA      C  404   4.112   1.043  12.500  0.0000 -0.0000  0.0000
    1GRA      C  405   4.396   1.043  12.500 -0.0000 -0.0000  0.0000
    1GRA      C  406   4.538   1.043  12.500  0.0000 -0.0000  0.0000
    1GRA      C  407   4.821   1.043  12.500  0.0000 -0.0000 -0.0000
    1GRA      C  408   4.963   1.043  12.500  0.0000 -0.0000 -0.0000
    1GRA      C  409   5.247   1.043  12.500 -0.0000 -0.0000 -0.0000
    1GRA      C  410   5.389   1.043  12.500 -0.0000 -0.0000  0.0000
    1GRA      C  411   5.672   1.043  12.500 -0.0000 -0.0000 -0.0000
    1GRA      C  412   5.814   1.043  12.500  0.0000 -0.0000  0.0000
    1GRA      C  413   6.098   1.043  12.500 -0.0000 -0.0000  0.0000
    1GRA      C  414   6.239   1.043  12.500  0.0000 -0.0000 -0.0000
    1GRA      C  415   6.523   1.043  12.500 -0.0000 -0.0000  0.0000
    1GRA      C  416   6.665   1.043  12.500  0.0000 -0.0000  0.0000
    1GRA      C  417   6.948   1.043  12.500  0.0000 -0.0000 -0.0000
    1GRA      C  418   7.090   1.043  12.500  0.0000 -0.0000  0.0000
    1GRA      C  419   7.374   1.043  12.500 -0.0000 -0.0000  0.0000
    1GRA      C  420   7.516   1.043  12.500  0.0000 -0.0000  0.0000
    1GRA      C  421   7.799   1.043  12.500 -0.0000 -0.0000 -0.0000
    1GRA      C  422   7.941   1.043  12.500  0.0000 -0.0000 -0.0000
    1GRA      C  423   8.225   1.043  12.500 -0.0000 -0.0000  0.0000
    1GRA      C  424   8.366   1.043  12.500  0.0000 -0.0000 -0.0000
    1GRA      C  425   8.650   1.043  12.500 -0.0000 -0.0000 -0.0000
    1GRA      C  426   8.792   1.043  12.500  0.0000 -0.0000  0.0000
    1GRA      C  427   9.075   1.043  12.500  0.0000 -0.0000 -0.0000
    1GRA      C  428   9.217   1.043  12.500  0.0000 -0.0000 -0.0000
    1GRA      C  429   9.501   1.043  12.500 -0.0000 -0.0000  0.0000
    1GRA      C  430   9.643   1.043  12.500  0.0000 -0.0000  0.0000
    1GRA      C  431   9.926   1.043  12.500 -0.0000 -0.0000  0.0000
    1GRA      C  432  10.068   1.043  12.500  0.0000 -0.0000  0.0000
    1GRA      C  433   0.071   1.166  12.500  0.0000  0.0000  0.0000
    1GRA      C  434   0.355   1.166  12.500 -0.0000  0.0000  0.0000
    1GRA      C  435   0.496   1.166  12.500  0.0000  0.0000  0.0000
    1GRA      C  436   0.780   1.166  12.500 -0.0000  0.0000  0.0000
    1GRA      C  437   0.922   1.166  12.500  0.0000  0.0000  0.0000
    1GRA      C  438   1.205   1.166  12.500  0.0000  0.0000  0.0000
    1GRA      C  439   1.347   1.166  12.500  0.0000  0.0000  0.0000
    1GRA      C  440   1.631   1.166  12.500 -0.0000  0.0000  0.0000
    1GRA      C  441   1.773   1.166  12.500  0.0000  0.0000  0.0000
    1GRA      C  442   2.056   1.166  12.500 -0.0000  0.0000  0.0000
    1GRA      C  443   2.198   1.166  12.500  0.0000  0.0000  0.0000
    1GRA      C  444   2.482   1.166  12.500 -0.0000  0.0000  0.0000
    1GRA      C  445   2.624   1.166  12.500 -0.0000  0.0000  0.0000
    1GRA      C  446   2.907   1.166  12.500 -0.0000  0.0000  0.0000
    1GRA      C  447   3.049   1.166  12.500  0.0000  0.0000  0.0000
    1GRA      C  448   3.333   1.166  12.500 -0.0000  0.0000  0.0000
    1GRA      C  449   3.474   1.166  12.500  0.0000  0.0000  0.0000
    1GRA      C  450   3.758   1.166  12.500 -0.0000  0.0000  0.0000
    1GRA      C  451   3.900   1.166  12.500  0.0000  0.0000  0.0000
    1GRA      C  452   4.183   1.166  12.500 -0.0000  0.0000  0.0000
    1GRA      C  453   4.325   1.166  12.500  0.0000  0.0000 -0.0000
    1GRA      C  454   4.609   1.166  12.500 -0.0000  0.0000  0.0000
    1GRA      C  455   4.751   1.166  12.500 -0.0000  0.0000 -0.0000
    1GRA      C  456   5.034   1.166  12.500 -0.0000  0.0000  0.0000
    1GRA      C  457   5.176   1.166  12.500  0.0000  0.0000 -0.0000
    1GRA      C  458   5.459   1.166  12.500  0.0000  0.0000 -0.0000
    1GRA      C  459   5.601   1.166  12.500  0.0000  0.0000 -0.0000
    1GRA      C  460   5.885   1.166  12.500 -0.0000  0.0000  0.0000
    1GRA      C  461   6.027   1.166  12.500  0.0000  0.0000  0.0000
    1GRA      C  462   6.310   1.166  12.500 -0.0000  0.0000  0.0000
    1GRA      C  463   6.452   1.166  12.500  0.0000  0.0000  0.0000
    1GRA      C  464   6.736   1.166  12.500 -0.0000  0.0000  0.0000
    1GRA      C  465   6.878   1.166  12.500 -0.0000  0.0000  0.0000
    1GRA      C  466   7.161   1.166  12.500 -0.0000  0.0000  0.0000
    1GRA      C  467   7.303   1.166  12.500  0.0000  0.0000 -0.0000
    1GRA      C  468   7.587   1.166  12.500 -0.0000  0.0000  0.0000
    1GRA      C  469   7.728   1.166  12.500  0.0000  0.0000 -0.0000
    1GRA      C  470   8.012   1.166  12.500 -0.0000  0.0000  0.0000
    1GRA      C  471   8.154   1.166  12.500  0.0000  0.0000 -0.0000
    1GRA      C  472   8.437   1.166  12.500 -0.0000  0.0000  0.0000
    1GRA      C  473   8.579   1.166  12.500  0.0000  0.0000 -0.0000
    1GRA      C  474   8.863   1.166  12.500 -0.0000  0.0000  0.0000
    1GRA      C  475   9.005   1.166  12.500 -0.0000  0.0000 -0.0000
    1GRA      C  476   9.288   1.166  12.500 -0.0000  0.0000  0.0000
    1GRA      C  477   9.430   1.166  12.500  0.0000  0.0000 -0.0000
    1GRA      C  478   9.714   1.166  12.500 -0.0000  0.0000 -0.0000
    1GRA      C  479   9.855   1.166  12.500  0.0000  0.0000  0.0000
    1GRA      C  480  10.139   1.166  12.500 -0.0000  0.0000  0.0000
    1GRA      C  481   0.142   1.289  12.500  0.0000 -0.0000  0.0000
    1GRA      C  482   0.284   1.289  12.500 -0.0000 -0.0000  0.0000
    1GRA      C  483   0.567   1.289  12.500  0.0000 -0.0000  0.0000
    1GRA      C  484   0.709   1.289  12.500  0.0000 -0.0000  0.0000
    1GRA      C  485   0.993   1.289  12.500 -0.0000 -0.0000  0.0000
    1GRA      C  486   1.135   1.289  12.500 -0.0000 -0.0000  0.0000
    1GRA      C  487   1.418   1.289  12.500  0.0000 -0.0000  0.0000
    1GRA      C  488   1.560   1.289  12.500  0.0000 -0.0000  0.0000
    1GRA      C  489   1.844   1.289  12.500 -0.0000 -0.0000  0.0000
    1GRA      C  490   1.985   1.289  12.500  0.0000 -0.0000  0.0000
    1GRA      C  491   2.269   1.289  12.500 -0.0000 -0.0000  0.0000
    1GRA      C  492   2.411   1.289  12.500 -0.0000 -0.0000  0.0000
    1GRA      C  493   2.694   1.289  12.500  0.0000 -0.0000  0.0000
    1GRA      C  494   2.836   1.289  12.500  0.0000 -0.0000  0.0000
    1GRA      C  495   3.120   1.289  12.500 -0.0000 -0.0000  0.0000
    1GRA      C  496   3.262   1.289  12.500 -0.0000 -0.0000  0.0000
    1GRA      C  497   3.545   1.289  12.500  0.0000 -0.0000  0.0000
    1GRA      C  498   3.687   1.289  12.500  0.0000 -0.0000  0.0000
    1GRA      C  499   3.971   1.289  12.500 -0.0000 -0.0000  0.0000
    1GRA      C  500   4.112   1.289  12.500  0.0000 -0.0000 -0.0000
    1GRA      C  501   4.396   1.289  12.500 -0.0000 -0.0000  0.0000
    1GRA      C  502   4.538   1.289  12.500 -0.0000 -0.0000  0.0000
    1GRA      C  503   4.821   1.289  12.500  0.0000 -0.0000  0.0000
    1GRA      C  504   4.963   1.289  12.500  0.0000 -0.0000 -0.0000
    1GRA      C  505   5.247   1.289  12.500 -0.0000 -0.0000  0.0000
    1GRA      C  506   5.389   1.289  12.500 -0.0000 -0.0000 -0.0000
    1GRA      C  507   5.672   1.289  12.500  0.0000 -0.0000 -0.0000
    1GRA      C  508   5.814   1.289  12.500  0.0000 -0.0000 -0.0000
    1GRA      C  509   6.098   1.289  12.500 -0.0000 -0.0000 -0.0000
    1GRA      C  510   6.239   1.289  12.500  0.0000 -0.0000 -0.0000
    1GRA      C  511   6.523   1.289  12.500 -0.0000 -0.0000  0.0000
    1GRA      C  512   6.665   1.289  12.500 -0.0000 -0.0000  0.0000
    1GRA      C  513   6.948   1.289  12.500  0.0000 -0.0000  0.0000
    1GRA      C  514   7.090   1.289  12.500  0.0000 -0.0000 -0.0000
    1GRA      C  515   7.374   1.289  12.500 -0.0000 -0.0000  0.0000
    1GRA      C  516   7.516   1.289  12.500 -0.0000 -0.0000 -0.0000
    1GRA      C  517   7.799   1.289  12.500  0.0000 -0.0000  0.0000
    1GRA      C  518   7.941   1.289  12.500  0.0000 -0.0000  0.0000
    1GRA      C  519   8.225   1.289  12.500 -0.0000 -0.0000  0.0000
    1GRA      C  520   8.366   1.289  12.500  0.0000 -0.0000  0.0000
    1GRA      C  521   8.650   1.289  12.500 -0.0000 -0.0000  0.0000
    1GRA      C  522   8.792   1.289  12.500 -0.0000 -0.0000  0.0000
    1GRA      C  523   9.075   1.289  12.500  0.0000 -0.0000 -0.0000
    1GRA      C  524   9.217   1.289  12.500  0.0000 -0.0000  0.0000
    1GRA      C  525   9.501   1.289  12.500 -0.0000 -0.0000  0.0000
    1GRA      C  526   9.643   1.289  12.500 -0.0000 -0.0000 -0.0000
    1GRA      C  527   9.926   1.289  12.500  0.0000 -0.0000 -0.0000
    1GRA      C  528  10.068   1.289  12.500 -0.0000 -0.0000 -0.0000
    1GRA      C  529   0.071   1.412  12.500  0.0000 -0.0000  0.0000
    1GRA      C  530   0.355   1.412  12.500 -0.0000 -0.0000  0.0000
    1GRA      C  531   0.496   1.412  12.500  0.0000 -0.0000  0.0000
    1GRA      C  532   0.780   1.412  12.500 -0.0000 -0.0000  0.0000
    1GRA      C  533   0.922   1.412  12.500  0.0000 -0.0000  0.0000
    1GRA      C  534   1.205   1.412  12.500  0.0000 -0.0000  0.0000
    1GRA      C  535   1.347   1.412  12.500  0.0000 -0.0000  0.0000
    1GRA      C  536   1.631   1.412  12.500 -0.0000 -0.0000  0.0000
    1GRA      C  537   1.773   1.412  12.500  0.0000 -0.0000  0.0000
    1GRA      C  538   2.056   1.412  12.500 -0.0000 -0.0000  0.0000
    1GRA      C  539   2.198   1.412  12.500  0.0000 -0.0000  0.0000
    1GRA      C  540   2.482   1.412  12.500 -0.0000 -0.0000  0.0000
    1GRA      C  541   2.624   1.412  12.500 -0.0000 -0.0000  0.0000
    1GRA      C  542   2.907   1.412  12.500 -0.0000 -0.0000  0.0000
    1GRA      C  543   3.049   1.412  12.500  0.0000 -0.0000  0.0000
    1GRA      C  544   3.333   1.412  12.500 -0.0000 -0.0000  0.0000
    1GRA      C  545   3.474   1.412  12.500  0.0000 -0.0000  0.0000
    1GRA      C  546   3.758   1.412  12.500 -0.0000 -0.0000  0.0000
    1GRA      C  547   3.900   1.412  12.500  0.0000 -0.0000  0.0000
    1GRA      C  548   4.183   1.412  12.500 -0.0000 -0.0000  0.0000
    1GRA      C  549   4.325   1.412  12.500  0.0000 -0.0000  0.0000
    1GRA      C  550   4.609   1.412  12.500 -0.0000 -0.0000 -0.0000
    1GRA      C  551   4.751   1.412  12.500 -0.0000 -0.0000  0.0000
    1GRA      C  552   5.034   1.412  12.500 -0.0000 -0.0000  0.0000
    1GRA      C  553   5.176   1.412  12.500  0.0000 -0.0000  0.0000
    1GRA      C  554   5.459   1.412  12.500  0.0000 -0.0000  0.0000
    1GRA      C  555   5.601   1.412  12.500  0.0000 -0.0000  0.0000
    1GRA      C  556   5.885   1.412  12.500 -0.0000 -0.0000  0.0000
    1GRA      C  557   6.027   1.412  12.500  0.0000 -0.0000  0.0000
    1GRA      C  558   6.310   1.412  12.500 -0.0000 -0.0000 -0.0000
    1GRA      C  559   6.452   1.412  12.500  0.0000 -0.0000  0.0000
    1GRA      C  560   6.736   1.412  12.500 -0.0000 -0.0000  0.0000
    1GRA      C  561   6.878   1.412  12.500 -0.0000 -0.0000  0.0000
    1GRA      C  562   7.161   1.412  12.500 -0.0000 -0.0000 -0.0000
    1GRA      C  563   7.303   1.412  12.500  0.0000 -0.0000 -0.0000
    1GRA      C  564   7.587   1.412  12.500 -0.0000 -0.0000  0.0000
    1GRA      C  565   7.728   1.412  12.500  0.0000 -0.0000 -0.0000
    1GRA      C  566   8.012   1.412  12.500 -0.0000 -0.0000 -0.0000
    1GRA      C  567   8.154   1.412  12.500  0.0000 -0.0000  0.0000
    1GRA      C  568   8.437   1.412  12.500 -0.0000 -0.0000 -0.0000
    1GRA      C  569   8.579   1.412  12.500  0.0000 -0.0000  0.0000
    1GRA      C  570   8.863   1.412  12.500 -0.0000 -0.0000  0.0000
    1GRA      C  571   9.005   1.412  12.500 -0.0000 -0.0000 -0.0000
    1GRA      C  572   9.288   1.412  12.500 -0.0000 -0.0000  0.0000
    1GRA      C  573   9.430   1.412  12.500  0.0000 -0.0000  0.0000
    1GRA      C  574   9.714   1.412  12.500 -0.0000 -0.0000  0.0000
    1GRA      C  575   9.855   1.412  12.500  0.0000 -0.0000 -0.0000
    1GRA      C  576  10.139   1.412  12.500 -0.0000 -0.0000  0.0000
    1GRA      C  577   0.142   1.535  12.500 -0.0000  0.0000  0.0000
    1GRA      C  578   0.284   1.535  12.500  0.0000  0.0000  0.0000
    1GRA      C  579   0.567   1.535  12.500 -0.0000  0.0000  0.0000
    1GRA      C  580   0.709   1.535  12.500  0.0000  0.0000  0.0000
    1GRA      C  581   0.993   1.535  12.500 -0.0000  0.0000  0.0000
    1GRA      C  582   1.135   1.535  12.500 -0.0000  0.0000  0.0000
    1GRA      C  583   1.418   1.535  12.500 -0.0000  0.0000  0.0000
    1GRA      C  584   1.560   1.535  12.500  0.0000  0.0000  0.0000
    1GRA      C  585   1.844   1.535  12.500 -0.0000  0.0000  0.0000
    1GRA      C  586   1.985   1.535  12.500  0.0000  0.0000  0.0000
    1GRA      C  587   2.269   1.535  12.500 -0.0000  0.0000  0.0000
    1GRA      C  588   2.411   1.535  12.500  0.0000  0.0000  0.0000
    1GRA      C  589   2.694   1.535  12.500  0.0000  0.0000  0.0000
    1GRA      C  590   2.836   1.535  12.500  0.0000  0.0000  0.0000
    1GRA      C  591   3.120   1.535  12.500 -0.0000  0.0000  0.0000
    1GRA      C  592   3.262   1.535  12.500  0.0000  0.0000  0.0000
    1GRA      C  593   3.545   1.535  12.500 -0.0000  0.0000  0.0000
    1GRA      C  594   3.687   1.535  12.500  0.0000  0.0000  0.0000
    1GRA      C  595   3.971   1.535  12.500 -0.0000  0.0000  0.0000
    1GRA      C  596   4.112   1.535  12.500  0.0000  0.0000  0.0000
    1GRA      C  597   4.396   1.535  12.500 -0.0000  0.0000  0.0000
    1GRA      C  598   4.538   1.535  12.500  0.0000  0.0000 -0.0000
    1GRA      C  599   4.821   1.535  12.500  0.0000  0.0000  0.0000
    1GRA      C  600   4.963   1.535  12.500  0.0000  0.0000 -0.0000
    1GRA      C  601   5.247   1.535  12.500 -0.0000  0.0000  0.0000
    1GRA      C  602   5.389   1.535  12.500 -0.0000  0.0000 -0.0000
    1GRA      C  603   5.672   1.535  12.500 -0.0000  0.0000  0.0000
    1GRA      C  604   5.814   1.535  12.500  0.0000  0.0000 -0.0000
    1GRA      C  605   6.098   1.535  12.500 -0.0000  0.0000 -0.0000
    1GRA      C  606   6.239   1.535  12.500  0.0000  0.0000 -0.0000
    1GRA      C  607   6.523   1.535  12.500 -0.0000  0.0000  0.0000
    1GRA      C  608   6.665   1.535  12.500  0.0000  0.0000 -0.0000
    1GRA      C  609   6.948   1.535  12.500  0.0000  0.0000  0.0000
    1GRA      C  610   7.090   1.535  12.500  0.0000  0.0000 -0.0000
    1GRA      C  611   7.374   1.535  12.500 -0.0000  0.0000 -0.0000
    1GRA      C  612   7.516   1.535  12.500  0.0000  0.0000 -0.0000
    1GRA      C  613   7.799   1.535  12.500 -0.0000  0.0000 -0.0000
    1GRA      C  614   7.941   1.535  12.500  0.0000  0.0000  0.0000
    1GRA      C  615   8.225   1.535  12.500 -0.0000  0.0000 -0.0000
    1GRA      C  616   8.366   1.535  12.500  0.0000  0.0000  0.0000
    1GRA      C  617   8.650   1.535  12.500 -0.0000  0.0000 -0.0000
    1GRA      C  618   8.792   1.535  12.500  0.0000  0.0000 -0.0000
    1GRA      C  619   9.075   1.535  12.500  0.0000  0.0000 -0.0000
    1GRA      C  620   9.217   1.535  12.500  0.0000  0.0000  0.0000
    1GRA      C  621   9.501   1.535  12.500 -0.0000  0.0000 -0.0000
    1GRA      C  622   9.643   1.535  12.500  0.0000  0.0000  0.0000
    1GRA      C  623   9.926   1.535  12.500 -0.0000  0.0000  0.0000
    1GRA      C  624  10.068   1.535  12.500  0.0000  0.0000 -0.0000
    1GRA      C  625   0.071   1.657  12.500  0.0000 -0.0000 -0.0000
    1GRA      C  626   0.355   1.657  12.500 -0.0000 -0.0000  0.0000
    1GRA      C  627   0.496   1.657  12.500  0.0000 -0.0000  0.0000
    1GRA      C  628   0.780   1.657  12.500 -0.0000 -0.0000  0.0000
    1GRA      C  629   0.922   1.657  12.500  0.0000 -0.0000  0.0000
    1GRA      C  630   1.205   1.657  12.500  0.0000 -0.0000  0.0000
    1GRA      C  631   1.347   1.657  12.500  0.0000 -0.0000  0.0000
    1GRA      C  632   1.631   1.657  12.500 -0.0000 -0.0000  0.0000
    1GRA      C  633   1.773   1.657  12.500  0.0000 -0.0000  0.0000
    1GRA      C  634   2.056   1.657  12.500 -0.0000 -0.0000  0.0000
    1GRA      C  635   2.198   1.657  12.500  0.0000 -0.0000  0.0000
    1GRA      C  636   2.482   1.657  12.500 -0.0000 -0.0000  0.0000
    1GRA      C  637   2.624   1.657  12.500 -0.0000 -0.0000  0.0000
    1GRA      C  638   2.907   1.657  12.500 -0.0000 -0.0000  0.0000
    1GRA      C  639   3.049   1.657  12.500  0.0000 -0.0000  0.0000
    1GRA      C  640   3.333   1.657  12.500 -0.0000 -0.0000  0.0000
    1GRA      C  641   3.474   1.657  12.500  0.0000 -0.0000  0.0000
    1GRA      C  642   3.758   1.657  12.500 -0.0000 -0.0000  0.0000
    1GRA      C  643   3.900   1.657  12.500  0.0000 -0.0000  0.0000
    1GRA      C  644   4.183   1.657  12.500 -0.0000 -0.0000  0.0000
    1GRA      C  645   4.325   1.657  12.500  0.0000 -0.0000  0.0000
    1GRA      C  646   4.609   1.657  12.500 -0.0000 -0.0000 -0.0000
    1GRA      C  647   4.751   1.657  12.500 -0.0000 -0.0000  0.0000
    1GRA      C  648   5.034   1.657  12.500 -0.0000 -0.0000 -0.0000
    1GRA      C  649   5.176   1.657  12.500  0.0000 -0.0000  0.0000
    1GRA      C  650   5.459   1.657  12.500  0.0000 -0.0000 -0.0000
    1GRA      C  651   5.601   1.657  12.500  0.0000 -0.0000 -0.0000
    1GRA      C  652   5.885   1.657  12.500 -0.0000 -0.0000  0.0000
    1GRA      C  653   6.027   1.657  12.500  0.0000 -0.0000 -0.0000
    1GRA      C  654   6.310   1.657  12.500 -0.0000 -0.0000  0.0000
    1GRA      C  655   6.452   1.657  12.500  0.0000 -0.0000  0.0000
    1GRA      C  656   6.736   1.657  12.500 -0.0000 -0.0000 -0.0000
    1GRA      C  657   6.878   1.657  12.500 -0.0000 -0.0000 -0.0000
    1GRA      C  658   7.161   1.657  12.500 -0.0000 -0.0000  0.0000
    1GRA      C  659   7.303   1.657  12.500  0.0000 -0.0000  0.0000
    1GRA      C  660   7.587   1.657  12.500 -0.0000 -0.0000  0.0000
    1GRA      C  661   7.728   1.657  12.500  0.0000 -0.0000 -0.0000
    1GRA      C  662   8.012   1.657  12.500 -0.0000 -0.0000  0.0000
    1GRA      C  663   8.154   1.657  12.500  0.0000 -0.0000  0.0000
    1GRA      C  664   8.437   1.657  12.500 -0.0000 -0.0000  0.0000
    1GRA      C  665   8.579   1.657  12.500  0.0000 -0.0000  0.0000
    1GRA      C  666   8.863   1.657  12.500 -0.0000 -0.0000 -0.0000
    1GRA      C  667   9.005   1.657  12.500 -0.0000 -0.0000 -0.0000
    1GRA      C  668   9.288   1.657  12.500 -0.0000 -0.0000  0.0000
    1GRA      C  669   9.430   1.657  12.500  0.0000 -0.0000 -0.0000
    1GRA      C  670   9.714   1.657  12.500 -0.0000 -0.0000  0.0000
    1GRA      C  671   9.855   1.657  12.500  0.0000 -0.0000 -0.0000
    1GRA      C  672  10.139   1.657  12.500 -0.0000 -0.0000  0.0000
    1GRA      C  673   0.142   1.780  12.500 -0.0000  0.0000  0.0000
    1GRA      C  674   0.284   1.780  12.500  0.0000  0.0000  0.0000
    1GRA      C  675   0.567   1.780  12.500 -0.0000  0.0000  0.0000
    1GRA      C  676   0.709   1.780  12.500  0.0000  0.0000  0.0000
    1GRA      C  677   0.993   1.780  12.500 -0.0000  0.0000  0.0000
    1GRA      C  678   1.135   1.780  12.500 -0.0000  0.0000  0.0000
    1GRA      C  679   1.418   1.780  12.500 -0.0000  0.0000  0.0000
    1GRA      C  680   1.560   1.780  12.500  0.0000  0.0000  0.0000
    1GRA      C  681   1.844   1.780  12.500 -0.0000  0.0000  0.0000
    1GRA      C  682   1.985   1.780  12.500  0.0000  0.0000  0.0000
    1GRA      C  683   2.269   1.780  12.500 -0.0000  0.0000  0.0000
    1GRA      C  684   2.411   1.780  12.500  0.0000  0.0000  0.0000
    1GRA      C  685   2.694   1.780  12.500  0.0000  0.0000  0.0000
    1GRA      C  686   2.836   1.780  12.500  0.0000  0.0000  0.0000
    1GRA      C  687   3.120   1.780  12.500 -0.0000  0.0000  0.0000
    1GRA      C  688   3.262   1.780  12.500  0.0000  0.0000  0.0000
    1GRA      C  689   3.545   1.780  12.500 -0.0000  0.0000  0.0000
    1GRA      C  690   3.687   1.780  12.500  0.0000  0.0000  0.0000
    1GRA      C  691   3.971   1.780  12.500 -0.0000  0.0000  0.0000
    1GRA      C  692   4.112   1.780  12.500  0.0000  0.0000  0.0000
    1GRA      C  693   4.396   1.780  12.500 -0.0000  0.0000  0.0000
    1GRA      C  694   4.538   1.780  12.500  0.0000  0.0000 -0.0000
    1GRA      C  695   4.821   1.780  12.500  0.0000  0.0000 -0.0000
    1GRA      C  696   4.963   1.780  12.500  0.0000  0.0000  0.0000
    1GRA      C  697   5.247   1.780  12.500 -0.0000  0.0000  0.0000
    1GRA      C  698   5.389   1.780  12.500 -0.0000  0.0000 -0.0000
    1GRA      C  699   5.672   1.780  12.500 -0.0000  0.0000  0.0000
    1GRA      C  700   5.814   1.780  12.500  0.0000  0.0000 -0.0000
    1GRA      C  701   6.098   1.780  12.500 -0.0000  0.0000  0.0000
    1GRA      C  702   6.239   1.780  12.500  0.0000  0.0000 -0.0000
    1GRA      C  703   6.523   1.780  12.500 -0.0000  0.0000  0.0000
    1GRA      C  704   6.665   1.780  12.500  0.0000  0.0000 -0.0000
    1GRA      C  705   6.948   1.780  12.500  0.0000  0.0000 -0.0000
    1GRA      C  706   7.090   1.780  12.500  0.0000  0.0000  0.0000
    1GRA      C  707   7.374   1.780  12.500 -0.0000  0.0000  0.0000
    1GRA      C  708   7.516   1.780  12.500  0.0000  0.0000  0.0000
    1GRA      C  709   7.799   1.780  12.500 -0.0000  0.0000  0.0000
    1GRA      C  710   7.941   1.780  12.500  0.0000  0.0000 -0.0000
    1GRA      C  711   8.225   1.780  12.500 -0.0000  0.0000  0.0000
    1GRA      C  712   8.366   1.780  12.500  0.0000  0.0000  0.0000
    1GRA      C  713   8.650   1.780  12.500 -0.0000  0.0000  0.0000
    1GRA      C  714   8.792   1.780  12.500  0.0000  0.0000 -0.0000
    1GRA      C  715   9.075   1.780  12.500  0.0000  0.0000 -0.0000
    1GRA      C  716   9.217   1.780  12.500  0.0000  0.0000 -0.0000
    1GRA      C  717   9.501   1.780  12.500 -0.0000  0.0000  0.0000
    1GRA      C  718   9.643   1.780  12.500  0.0000  0.0000  0.0000
    1GRA      C  719   9.926   1.780  12.500 -0.0000  0.0000  0.0000
    1GRA      C  720  10.068   1.780  12.500  0.0000  0.0000 -0.0000
    1GRA      C  721   0.071   1.903  12.500  0.0000 -0.0000 -0.0000
    1GRA      C  722   0.355   1.903  12.500 -0.0000 -0.0000  0.0000
    1GRA      C  723   0.496   1.903  12.500  0.0000 -0.0000  0.0000
    1GRA      C  724   0.780   1.903  12.500 -0.0000 -0.0000  0.0000
    1GRA      C  725   0.922   1.903  12.500 -0.0000 -0.0000  0.0000
    1GRA      C  726   1.205   1.903  12.500  0.0000 -0.0000  0.0000
    1GRA      C  727   1.347   1.903  12.500  0.0000 -0.0000  0.0000
    1GRA      C  728   1.631   1.903  12.500 -0.0000 -0.0000  0.0000
    1GRA      C  729   1.773   1.903  12.500 -0.0000 -0.0000  0.0000
    1GRA      C  730   2.056   1.903  12.500  0.0000  0.0000  0.0000
    1GRA      C  731   2.198   1.903  12.500  0.0000  0.0000  0.0000
    1GRA      C  732   2.482   1.903  12.500 -0.0000  0.0000  0.0000
    1GRA      C  733   2.624   1.903  12.500 -0.0000  0.0000  0.0000
    1GRA      C  734   2.907   1.903  12.500  0.0000  0.0000  0.0000
    1GRA      C  735   3.049   1.903  12.500  0.0000  0.0000  0.0000
    1GRA      C  736   3.333   1.903  12.500 -0.0000  0.0000  0.0000
    1GRA      C  737   3.474   1.903  12.500  0.0000  0.0000  0.0000
    1GRA      C  738   3.758   1.903  12.500 -0.0000  0.0000  0.0000
    1GRA      C  739   3.900   1.903  12.500 -0.0000  0.0000  0.0000
    1GRA      C  740   4.183   1.903  12.500  0.0000 -0.0000  0.0000
    1GRA      C  741   4.325   1.903  12.500  0.0000 -0.0000  0.0000
    1GRA      C  742   4.609   1.903  12.500 -0.0000 -0.0000  0.0000
    1GRA      C  743   4.751   1.903  12.500 -0.0000 -0.0000 -0.0000
    1GRA      C  744   5.034   1.903  12.500  0.0000 -0.0000 -0.0000
    1GRA      C  745   5.176   1.903  12.500 -0.0000 -0.0000 -0.0000
    1GRA      C  746   5.459   1.903  12.500  0.0000 -0.0000  0.0000
    1GRA      C  747   5.601   1.903  12.500  0.0000 -0.0000 -0.0000
    1GRA      C  748   5.885   1.903  12.500 -0.0000 -0.0000  0.0000
    1GRA      C  749   6.027   1.903  12.500 -0.0000 -0.0000 -0.0000
    1GRA      C  750   6.310   1.903  12.500  0.0000 -0.0000  0.0000
    1GRA      C  751   6.452   1.903  12.500  0.0000 -0.0000  0.0000
    1GRA      C  752   6.736   1.903  12.500 -0.0000 -0.0000  0.0000
    1GRA      C  753   6.878   1.903  12.500 -0.0000 -0.0000 -0.0000
    1GRA      C  754   7.161   1.903  12.500  0.0000 -0.0000  0.0000
    1GRA      C  755   7.303   1.903  12.500  0.0000 -0.0000 -0.0000
    1GRA      C  756   7.587   1.903  12.500 -0.0000 -0.0000  0.0000
    1GRA      C  757   7.728   1.903  12.500  0.0000 -0.0000 -0.0000
    1GRA      C  758   8.012   1.903  12.500 -0.0000 -0.0000 -0.0000
    1GRA      C  759   8.154   1.903  12.500 -0.0000 -0.0000  0.0000
    1GRA      C  760   8.437   1.903  12.500  0.0000 -0.0000  0.0000
    1GRA      C  761   8.579   1.903  12.500  0.0000 -0.0000 -0.0000
    1GRA      C  762   8.863   1.903  12.500 -0.0000 -0.0000 -0.0000
    1GRA      C  763   9.005   1.903  12.500 -0.0000 -0.0000 -0.0000
    1GRA      C  764   9.288   1.903  12.500  0.0000 -0.0000 -0.0000
    1GRA      C  765   9.430   1.903  12.500  0.0000 -0.0000 -0.0000
    1GRA      C  766   9.714   1.903  12.500 -0.0000 -0.0000 -0.0000
    1GRA      C  767   9.855   1.903  12.500  0.0000 -0.0000  0.0000
    1GRA      C  768  10.139   1.903  12.500 -0.0000 -0.0000  0.0000
    1GRA      C  769   0.142   2.026  12.500 -0.0000 -0.0000  0.0000
    1GRA      C  770   0.284   2.026  12.500  0.0000 -0.0000  0.0000
    1GRA      C  771   0.567   2.026  12.500 -0.0000 -0.0000  0.0000
    1GRA      C  772   0.709   2.026  12.500  0.0000 -0.0000  0.0000
    1GRA      C  773   0.993   2.026  12.500 -0.0000 -0.0000  0.0000
    1GRA      C  774   1.135   2.026  12.500 -0.0000 -0.0000  0.0000
    1GRA      C  775   1.418   2.026  12.500 -0.0000 -0.0000  0.0000
    1GRA      C  776   1.560   2.026  12.500  0.0000 -0.0000  0.0000
    1GRA      C  777   1.844   2.026  12.500 -0.0000 -0.0000  0.0000
    1GRA      C  778   1.985   2.026  12.500  0.0000 -0.0000  0.0000
    1GRA      C  779   2.269   2.026  12.500 -0.0000 -0.0000  0.0000
    1GRA      C  780   2.411   2.026  12.500  0.0000 -0.0000  0.0000
    1GRA      C  781   2.694   2.026  12.500  0.0000 -0.0000  0.0000
    1GRA      C  782   2.836   2.026  12.500  0.0000 -0.0000  0.0000
    1GRA      C  783   3.120   2.026  12.500 -0.0000 -0.0000  0.0000
    1GRA      C  784   3.262   2.026  12.500  0.0000 -0.0000  0.0000
    1GRA      C  785   3.545   2.026  12.500 -0.0000 -0.0000  0.0000
    1GRA      C  786   3.687   2.026  12.500  0.0000 -0.0000  0.0000
    1GRA      C  787   3.971   2.026  12.500 -0.0000 -0.0000  0.0000
    1GRA      C  788   4.112   2.026  12.500  0.0000 -0.0000  0.0000
    1GRA      C  789   4.396   2.026  12.500 -0.0000 -0.0000  0.0000
    1GRA      C  790   4.538   2.026  12.500  0.0000 -0.0000  0.0000
    1GRA      C  791   4.821   2.026  12.500  0.0000 -0.0000  0.0000
    1GRA      C  792   4.963   2.026  12.500  0.0000 -0.0000  0.0000
    1GRA      C  793   5.247   2.026  12.500 -0.0000 -0.0000  0.0000
    1GRA      C  794   5.389   2.026  12.500 -0.0000 -0.0000 -0.0000
    1GRA      C  795   5.672   2.026  12.500 -0.0000 -0.0000 -0.0000
    1GRA      C  796   5.814   2.026  12.500  0.0000 -0.0000  0.0000
    1GRA      C  797   6.098   2.026  12.500 -0.0000 -0.0000 -0.0000
    1GRA      C  798   6.239   2.026  12.500  0.0000 -0.0000  0.0000
    1GRA      C  799   6.523   2.026  12.500 -0.0000 -0.0000  0.0000
    1GRA      C  800   6.665   2.026  12.500  0.0000 -0.0000  0.0000
    1GRA      C  801   6.948   2.026  12.500  0.0000 -0.0000  0.0000
    1GRA      C  802   7.090   2.026  12.500  0.0000 -0.0000  0.0000
    1GRA      C  803   7.374   2.026  12.500 -0.0000 -0.0000  0.0000
    1GRA      C  804   7.516   2.026  12.500  0.0000 -0.0000 -0.0000
    1GRA      C  805   7.799   2.026  12.500 -0.0000 -0.0000  0.0000
    1GRA      C  806   7.941   2.026  12.500  0.0000 -0.0000 -0.0000
    1GRA      C  807   8.225   2.026  12.500 -0.0000 -0.0000  0.0000
    1GRA      C  808   8.366   2.026  12.500  0.0000 -0.0000  0.0000
    1GRA      C  809   8.650   2.026  12.500 -0.0000 -0.0000  0.0000
    1GRA      C  810   8.792   2.026  12.500  0.0000 -0.0000 -0.0000
    1GRA      C  811   9.075   2.026  12.500  0.0000 -0.0000  0.0000
    1GRA      C  812   9.217   2.026  12.500  0.0000 -0.0000 -0.0000
    1GRA      C  813   9.501   2.026  12.500 -0.0000 -0.0000  0.0000
    1GRA      C  814   9.643   2.026  12.500  0.0000 -0.0000 -0.0000
    1GRA      C  815   9.926   2.026  12.500 -0.0000 -0.0000  0.0000
    1GRA      C  816  10.068   2.026  12.500  0.0000 -0.0000 -0.0000
    1GRA      C  817   0.071   2.149  12.500  0.0000  0.0000  0.0000
    1GRA      C  818   0.355   2.149  12.500 -0.0000  0.0000  0.0000
    1GRA      C  819   0.496   2.149  12.500  0.0000  0.0000  0.0000
    1GRA      C  820   0.780   2.149  12.500 -0.0000  0.0000  0.0000
    1GRA      C  821   0.922   2.149  12.500  0.0000  0.0000  0.0000
    1GRA      C  822   1.205   2.149  12.500  0.0000  0.0000  0.0000
    1GRA      C  823   1.347   2.149  12.500  0.0000  0.0000  0.0000
    1GRA      C  824   1.631   2.149  12.500 -0.0000  0.0000  0.0000
    1GRA      C  825   1.773   2.149  12.500  0.0000  0.0000  0.0000
    1GRA      C  826   2.056   2.149  12.500 -0.0000  0.0000  0.0000
    1GRA      C  827   2.198   2.149  12.500  0.0000  0.0000  0.0000
    1GRA      C  828   2.482   2.149  12.500 -0.0000  0.0000  0.0000
    1GRA      C  829   2.624   2.149  12.500 -0.0000  0.0000  0.0000
    1GRA      C  830   2.907   2.149  12.500 -0.0000  0.0000  0.0000
    1GRA      C  831   3.049   2.149  12.500  0.0000  0.0000  0.0000
    1GRA      C  832   3.333   2.149  12.500 -0.0000  0.0000  0.0000
    1GRA      C  833   3.474   2.149  12.500  0.0000  0.0000  0.0000
    1GRA      C  834   3.758   2.149  12.500 -0.0000  0.0000  0.0000
    1GRA      C  835   3.900   2.149  12.500  0.0000  0.0000  0.0000
    1GRA      C  836   4.183   2.149  12.500 -0.0000  0.0000  0.0000
    1GRA      C  837   4.325   2.149  12.500  0.0000  0.0000  0.0000
    1GRA      C  838   4.609   2.149  12.500 -0.0000  0.0000  0.0000
    1GRA      C  839   4.751   2.149  12.500 -0.0000  0.0000  0.0000
    1GRA      C  840   5.034   2.149  12.500 -0.0000  0.0000  0.0000
    1GRA      C  841   5.176   2.149  12.500  0.0000  0.0000  0.0000
    1GRA      C  842   5.459   2.149  12.500  0.0000  0.0000 -0.0000
    1GRA      C  843   5.601   2.149  12.500  0.0000  0.0000  0.0000
    1GRA      C  844   5.885   2.149  12.500 -0.0000  0.0000 -0.0000
    1GRA      C  845   6.027   2.149  12.500  0.0000  0.0000  0.0000
    1GRA      C  846   6.310   2.149  12.500 -0.0000  0.0000  0.0000
    1GRA      C  847   6.452   2.149  12.500  0.0000  0.0000  0.0000
    1GRA      C  848   6.736   2.149  12.500 -0.0000  0.0000 -0.0000
    1GRA      C  849   6.878   2.149  12.500 -0.0000  0.0000  0.0000
    1GRA      C  850   7.161   2.149  12.500 -0.0000  0.0000 -0.0000
    1GRA      C  851   7.303   2.149  12.500  0.0000  0.0000  0.0000
    1GRA      C  852   7.587   2.149  12.500 -0.0000  0.0000  0.0000
    1GRA      C  853   7.728   2.149  12.500  0.0000  0.0000 -0.0000
    1GRA      C  854   8.012   2.149  12.500 -0.0000  0.0000  0.0000
    1GRA      C  855   8.154   2.149  12.500  0.0000  0.0000  0.0000
    1GRA      C  856   8.437   2.149  12.500 -0.0000  0.0000  0.0000
    1GRA      C  857   8.579   2.149  12.500  0.0000  0.0000 -0.0000
    1GRA      C  858   8.863   2.149  12.500 -0.0000  0.0000  0.0000
    1GRA      C  859   9.005   2.149  12.500 -0.0000  0.0000 -0.0000
    1GRA      C  860   9.288   2.149  12.500 -0.0000  0.0000 -0.0000
    1GRA      C  861   9.430   2.149  12.500  0.0000  0.0000  0.0000
    1GRA      C  862   9.714   2.149  12.500 -0.0000  0.0000  0.0000
    1GRA      C  863   9.855   2.149  12.500  0.0000  0.0000  0.0000
    1GRA      C  864  10.139   2.149  12.500 -0.0000  0.0000 -0.0000
    1GRA      C  865   0.142   2.271  12.500 -0.0000 -0.0000 -0.0000
    1GRA      C  866   0.284   2.271  12.500  0.0000 -0.0000 -0.0000
    1GRA      C  867   0.567   2.271  12.500 -0.0000 -0.0000  0.0000
    1GRA      C  868   0.709   2.271  12.500  0.0000 -0.0000  0.0000
    1GRA      C  869   0.993   2.271  12.500 -0.0000 -0.0000  0.0000
    1GRA      C  870   1.135   2.271  12.500 -0.0000 -0.0000  0.0000
    1GRA      C  871   1.418   2.271  12.500 -0.0000 -0.0000  0.0000
    1GRA      C  872   1.560   2.271  12.500  0.0000 -0.0000  0.0000
    1GRA      C  873   1.844   2.271  12.500 -0.0000 -0.0000  0.0000
    1GRA      C  874   1.985   2.271  12.500  0.0000 -0.0000  0.0000
    1GRA      C  875   2.269   2.271  12.500 -0.0000 -0.0000  0.0000
    1GRA      C  876   2.411   2.271  12.500  0.0000 -0.0000  0.0000
    1GRA      C  877   2.694   2.271  12.500  0.0000 -0.0000  0.0000
    1GRA      C  878   2.836   2.271  12.500  0.0000 -0.0000  0.0000
    1GRA      C  879   3.120   2.271  12.500 -0.0000 -0.0000  0.0000
    1GRA      C  880   3.262   2.271  12.500  0.0000 -0.0000  0.0000
    1GRA      C  881   3.545   2.271  12.500 -0.0000 -0.0000  0.0000
    1GRA      C  882   3.687   2.271  12.500  0.0000 -0.0000  0.0000
    1GRA      C  883   3.971   2.271  12.500 -0.0000 -0.0000  0.0000
    1GRA      C  884   4.112   2.271  12.500  0.0000 -0.0000  0.0000
    1GRA      C  885   4.396   2.271  12.500 -0.0000 -0.0000  0.0000
    1GRA      C  886   4.538   2.271  12.500  0.0000 -0.0000  0.0000
    1GRA      C  887   4.821   2.271  12.500  0.0000 -0.0000  0.0000
    1GRA      C  888   4.963   2.271  12.500  0.0000 -0.0000  0.0000
    1GRA      C  889   5.247   2.271  12.500 -0.0000 -0.0000 -0.0000
    1GRA      C  890   5.389   2.271  12.500 -0.0000 -0.0000 -0.0000
    1GRA      C  891   5.672   2.271  12.500 -0.0000 -0.0000 -0.0000
    1GRA      C  892   5.814   2.271  12.500  0.0000 -0.0000  0.0000
    1GRA      C  893   6.098   2.271  12.500 -0.0000 -0.0000 -0.0000
    1GRA      C  894   6.239   2.271  12.500  0.0000 -0.0000  0.0000
    1GRA      C  895   6.523   2.271  12.500 -0.0000 -0.0000  0.0000
    1GRA      C  896   6.665   2.271  12.500  0.0000 -0.0000  0.0000
    1GRA      C  897   6.948   2.271  12.500  0.0000 -0.0000 -0.0000
    1GRA      C  898   7.090   2.271  12.500  0.0000 -0.0000 -0.0000
    1GRA      C  899   7.374   2.271  12.500 -0.0000 -0.0000 -0.0000
    1GRA      C  900   7.516   2.271  12.500  0.0000 -0.0000 -0.0000
    1GRA      C  901   7.799   2.271  12.500 -0.0000 -0.0000  0.0000
    1GRA      C  902   7.941   2.271  12.500  0.0000 -0.0000  0.0000
    1GRA      C  903   8.225   2.271  12.500 -0.0000 -0.0000 -0.0000
    1GRA      C  904   8.366   2.271  12.500  0.0000 -0.0000  0.0000
    1GRA      C  905   8.650   2.271  12.500 -0.0000 -0.0000  0.0000
    1GRA      C  906   8.792   2.271  12.500  0.0000 -0.0000  0.0000
    1GRA      C  907   9.075   2.271  12.500  0.0000 -0.0000  0.0000
    1GRA      C  908   9.217   2.271  12.500  0.0000 -0.0000  0.0000
    1GRA      C  909   9.501   2.271  12.500 -0.0000 -0.0000 -0.0000
    1GRA      C  910   9.643   2.271  12.500  0.0000 -0.0000 -0.0000
    1GRA      C  911   9.926   2.271  12.500 -0.0000 -0.0000 -0.0000
    1GRA      C  912  10.068   2.271  12.500  0.0000 -0.0000  0.0000
    1GRA      C  913   0.071   2.394  12.500  0.0000  0.0000  0.0000
    1GRA      C  914   0.355   2.394  12.500 -0.0000  0.0000 -0.0000
    1GRA      C  915   0.496   2.394  12.500  0.0000  0.0000  0.0000
    1GRA      C  916   0.780   2.394  12.500 -0.0000  0.0000  0.0000
    1GRA      C  917   0.922   2.394  12.500  0.0000  0.0000  0.0000
    1GRA      C  918   1.205   2.394  12.500  0.0000  0.0000  0.0000
    1GRA      C  919   1.347   2.394  12.500  0.0000  0.0000  0.0000
    1GRA      C  920   1.631   2.394  12.500 -0.0000  0.0000  0.0000
    1GRA      C  921   1.773   2.394  12.500  0.0000  0.0000  0.0000
    1GRA      C  922   2.056   2.394  12.500 -0.0000  0.0000  0.0000
    1GRA      C  923   2.198   2.394  12.500  0.0000  0.0000  0.0000
    1GRA      C  924   2.482   2.394  12.500 -0.0000  0.0000  0.0000
    1GRA      C  925   2.624   2.394  12.500 -0.0000  0.0000  0.0000
    1GRA      C  926   2.907   2.394  12.500 -0.0000  0.0000  0.0000
    1GRA      C  927   3.049   2.394  12.500  0.0000  0.0000  0.0000
    1GRA      C  928   3.333   2.394  12.500 -0.0000  0.0000  0.0000
    1GRA      C  929   3.474   2.394  12.500  0.0000  0.0000  0.0000
    1GRA      C  930   3.758   2.394  12.500 -0.0000  0.0000  0.0000
    1GRA      C  931   3.900   2.394  12.500  0.0000  0.0000  0.0000
    1GRA      C  932   4.183   2.394  12.500 -0.0000  0.0000  0.0000
    1GRA      C  933   4.325   2.394  12.500  0.0000  0.0000  0.0000
    1GRA      C  934   4.609   2.394  12.500 -0.0000  0.0000  0.0000
    1GRA      C  935   4.751   2.394  12.500 -0.0000  0.0000  0.0000
    1GRA      C  936   5.034   2.394  12.500 -0.0000  0.0000  0.0000
    1GRA      C  937   5.176   2.394  12.500  0.0000  0.0000  0.0000
    1GRA      C  938   5.459   2.394  12.500  0.0000  0.0000  0.0000
    1GRA      C  939   5.601   2.394  12.500  0.0000  0.0000  0.0000
    1GRA      C  940   5.885   2.394  12.500 -0.0000  0.0000 -0.0000
    1GRA      C  941   6.027   2.394  12.500  0.0000  0.0000 -0.0000
    1GRA      C  942   6.310   2.394  12.500 -0.0000  0.0000 -0.0000
    1GRA      C  943   6.452   2.394  12.500  0.0000  0.0000  0.0000
    1GRA      C  944   6.736   2.394  12.500 -0.0000  0.0000 -0.0000
    1GRA      C  945   6.878   2.394  12.500 -0.0000  0.0000 -0.0000
    1GRA      C  946   7.161   2.394  12.500 -0.0000  0.0000 -0.0000
    1GRA      C  947   7.303   2.394  12.500  0.0000  0.0000  0.0000
    1GRA      C  948   7.587   2.394  12.500 -0.0000  0.0000 -0.0000
    1GRA      C  949   7.728   2.394  12.500  0.0000  0.0000 -0.0000
    1GRA      C  950   8.012   2.394  12.500 -0.0000  0.0000 -0.0000
    1GRA      C  951   8.154   2.394  12.500  0.0000  0.0000  0.0000
    1GRA      C  952   8.437   2.394  12.500 -0.0000  0.0000 -0.0000
    1GRA      C  953   8.579   2.394  12.500  0.0000  0.0000  0.0000
    1GRA      C  954   8.863   2.394  12.500 -0.0000  0.0000 -0.0000
    1GRA      C  955   9.005   2.394  12.500 -0.0000  0.0000 -0.0000
    1GRA      C  956   9.288   2.394  12.500 -0.0000  0.0000 -0.0000
    1GRA      C  957   9.430   2.394  12.500  0.0000  0.0000  0.0000
    1GRA      C  958   9.714   2.394  12.500 -0.0000  0.0000 -0.0000
    1GRA      C  959   9.855   2.394  12.500  0.0000  0.0000  0.0000
    1GRA      C  960  10.139   2.394  12.500 -0.0000  0.0000 -0.0000
    1GRA      C  961   0.142   2.517  12.500  0.0000  0.0000 -0.0000
    1GRA      C  962   0.284   2.517  12.500 -0.0000  0.0000  0.0000
    1GRA      C  963   0.567   2.517  12.500  0.0000  0.0000 -0.0000
    1GRA      C  964   0.709   2.517  12.500  0.0000  0.0000  0.0000
    1GRA      C  965   0.993   2.517  12.500 -0.0000  0.0000  0.0000
    1GRA      C  966   1.135   2.517  12.500 -0.0000  0.0000  0.0000
    1GRA      C  967   1.418   2.517  12.500  0.0000  0.0000  0.0000
    1GRA      C  968   1.560   2.517  12.500  0.0000  0.0000  0.0000
    1GRA      C  969   1.844   2.517  12.500 -0.0000  0.0000  0.0000
    1GRA      C  970   1.985   2.517  12.500  0.0000  0.0000  0.0000
    1GRA      C  971   2.269   2.517  12.500 -0.0000  0.0000  0.0000
    1GRA      C  972   2.411   2.517  12.500 -0.0000  0.0000  0.0000
    1GRA      C  973   2.694   2.517  12.500  0.0000  0.0000  0.0000
    1GRA      C  974   2.836   2.517  12.500  0.0000  0.0000 -0.0000
    1GRA      C  975   3.120   2.517  12.500 -0.0000  0.0000 -0.0000
    1GRA      C  976   3.262   2.517  12.500 -0.0000  0.0000  0.0000
    1GRA      C  977   3.545   2.517  12.500  0.0000  0.0000  0.0000
    1GRA      C  978   3.687   2.517  12.500  0.0000  0.0000  0.0000
    1GRA      C  979   3.971   2.517  12.500 -0.0000  0.0000  0.0000
    1GRA      C  980   4.112   2.517  12.500  0.0000  0.0000  0.0000
    1GRA      C  981   4.396   2.517  12.500 -0.0000  0.0000  0.0000
    1GRA      C  982   4.538   2.517  12.500 -0.0000  0.0000  0.0000
    1GRA      C  983   4.821   2.517  12.500  0.0000  0.0000  0.0000
    1GRA      C  984   4.963   2.517  12.500  0.0000  0.0000  0.0000
    1GRA      C  985   5.247   2.517  12.500 -0.0000  0.0000  0.0000
    1GRA      C  986   5.389   2.517  12.500 -0.0000  0.0000  0.0000
    1GRA      C  987   5.672   2.517  12.500  0.0000  0.0000 -0.0000
    1GRA      C  988   5.814   2.517  12.500  0.0000  0.0000  0.0000
    1GRA      C  989   6.098   2.517  12.500 -0.0000  0.0000 -0.0000
    1GRA      C  990   6.239   2.517  12.500  0.0000  0.0000  0.0000
    1GRA      C  991   6.523   2.517  12.500 -0.0000  0.0000 -0.0000
    1GRA      C  992   6.665   2.517  12.500 -0.0000  0.0000  0.0000
    1GRA      C  993   6.948   2.517  12.500  0.0000  0.0000 -0.0000
    1GRA      C  994   7.090   2.517  12.500  0.0000  0.0000  0.0000
    1GRA      C  995   7.374   2.517  12.500 -0.0000  0.0000 -0.0000
    1GRA      C  996   7.516   2.517  12.500 -0.0000  0.0000  0.0000
    1GRA      C  997   7.799   2.517  12.500  0.0000  0.0000 -0.0000
    1GRA      C  998   7.941   2.517  12.500  0.0000  0.0000  0.0000
    1GRA      C  999   8.225   2.517  12.500 -0.0000  0.0000  0.0000
    1GRA      C 1000   8.366   2.517  12.500  0.0000  0.0000  0.0000
    1GRA      C 1001   8.650   2.517  12.500 -0.0000  0.0000  0.0000
    1GRA      C 1002   8.792   2.517  12.500 -0.0000  0.0000 -0.0000
    1GRA      C 1003   9.075   2.517  12.500  0.0000  0.0000  0.0000
    1GRA      C 1004   9.217   2.517  12.500  0.0000  0.0000 -0.0000
    1GRA      C 1005   9.501   2.517  12.500 -0.0000  0.0000  0.0000
    1GRA      C 1006   9.643   2.517  12.500 -0.0000  0.0000 -0.0000
    1GRA      C 1007   9.926   2.517  12.500  0.0000  0.0000  0.0000
    1GRA      C 1008  10.068   2.517  12.500 -0.0000  0.0000  0.0000
    1GRA      C 1009   0.071   2.640  12.500  0.0000 -0.0000 -0.0000
    1GRA      C 1010   0.355   2.640  12.500 -0.0000 -0.0000  0.0000
    1GRA      C 1011   0.496   2.640  12.500  0.0000 -0.0000 -0.0000
    1GRA      C 1012   0.780   2.640  12.500 -0.0000 -0.0000  0.0000
    1GRA      C 1013   0.922   2.640  12.500  0.0000 -0.0000  0.0000
    1GRA      C 1014   1.205   2.640  12.500  0.0000 -0.0000  0.0000
    1GRA      C 1015   1.347   2.640  12.500  0.0000 -0.0000  0.0000
    1GRA      C 1016   1.631   2.640  12.500 -0.0000 -0.0000  0.0000
    1GRA      C 1017   1.773   2.640  12.500  0.0000 -0.0000  0.0000
    1GRA      C 1018   2.056   2.640  12.500 -0.0000 -0.0000  0.0000
    1GRA      C 1019   2.198   2.640  12.500  0.0000 -0.0000  0.0000
    1GRA      C 1020   2.482   2.640  12.500 -0.0000 -0.0000  0.0000
    1GRA      C 1021   2.624   2.640  12.500 -0.0000 -0.0000  0.0000
    1GRA      C 1022   2.907   2.640  12.500 -0.0000 -0.0000 -0.0000
    1GRA      C 1023   3.049   2.640  12.500  0.0000 -0.0000 -0.0000
    1GRA      C 1024   3.333   2.640  12.500 -0.0000 -0.0000  0.0000
    1GRA      C 1025   3.474   2.640  12.500  0.0000 -0.0000  0.0000
    1GRA      C 1026   3.758   2.640  12.500 -0.0000 -0.0000  0.0000
    1GRA      C 1027   3.900   2.640  12.500  0.0000 -0.0000  0.0000
    1GRA      C 1028   4.183   2.640  12.500 -0.0000 -0.0000  0.0000
    1GRA      C 1029   4.325   2.640  12.500  0.0000 -0.0000  0.0000
    1GRA      C 1030   4.609   2.640  12.500 -0.0000 -0.0000  0.0000
    1GRA      C 1031   4.751   2.640  12.500 -0.0000 -0.0000  0.0000
    1GRA      C 1032   5.034   2.640  12.500 -0.0000 -0.0000  0.0000
    1GRA      C 1033   5.176   2.640  12.500  0.0000 -0.0000  0.0000
    1GRA      C 1034   5.459   2.640  12.500  0.0000 -0.0000  0.0000
    1GRA      C 1035   5.601   2.640  12.500  0.0000 -0.0000 -0.0000
    1GRA      C 1036   5.885   2.640  12.500 -0.0000 -0.0000  0.0000
    1GRA      C 1037   6.027   2.640  12.500  0.0000 -0.0000 -0.0000
    1GRA      C 1038   6.310   2.640  12.500 -0.0000 -0.0000  0.0000
    1GRA      C 1039   6.452   2.640  12.500  0.0000 -0.0000 -0.0000
    1GRA      C 1040   6.736   2.640  12.500 -0.0000 -0.0000  0.0000
    1GRA      C 1041   6.878   2.640  12.500 -0.0000 -0.0000 -0.0000
    1GRA      C 1042   7.161   2.640  12.500 -0.0000 -0.0000  0.0000
    1GRA      C 1043   7.303   2.640  12.500  0.0000 -0.0000 -0.0000
    1GRA      C 1044   7.587   2.640  12.500 -0.0000 -0.0000  0.0000
    1GRA      C 1045   7.728   2.640  12.500  0.0000 -0.0000 -0.0000
    1GRA      C 1046   8.012   2.640  12.500 -0.0000 -0.0000  0.0000
    1GRA      C 1047   8.154   2.640  12.500  0.0000 -0.0000 -0.0000
    1GRA      C 1048   8.437   2.640  12.500 -0.0000 -0.0000  0.0000
    1GRA      C 1049   8.579   2.640  12.500  0.0000 -0.0000  0.0000
    1GRA      C 1050   8.863   2.640  12.500 -0.0000 -0.0000  0.0000
    1GRA      C 1051   9.005   2.640  12.500 -0.0000 -0.0000  0.0000
    1GRA      C 1052   9.288   2.640  12.500 -0.0000 -0.0000  0.0000
    1GRA      C 1053   9.430   2.640  12.500  0.0000 -0.0000  0.0000
    1GRA      C 1054   9.714   2.640  12.500 -0.0000 -0.0000  0.0000
    1GRA      C 1055   9.855   2.640  12.500  0.0000 -0.0000  0.0000
    1GRA      C 1056  10.139   2.640  12.500 -0.0000 -0.0000  0.0000
    1GRA      C 1057   0.142   2.763  12.500 -0.0000  0.0000  0.0000
    1GRA      C 1058   0.284   2.763  12.500  0.0000  0.0000  0.0000
    1GRA      C 1059   0.567   2.763  12.500 -0.0000  0.0000  0.0000
    1GRA      C 1060   0.709   2.763  12.500  0.0000  0.0000  0.0000
    1GRA      C 1061   0.993   2.763  12.500 -0.0000  0.0000  0.0000
    1GRA      C 1062   1.135   2.763  12.500 -0.0000  0.0000  0.0000
    1GRA      C 1063   1.418   2.763  12.500 -0.0000  0.0000  0.0000
    1GRA      C 1064   1.560   2.763  12.500  0.0000  0.0000  0.0000
    1GRA      C 1065   1.844   2.763  12.500 -0.0000  0.0000  0.0000
    1GRA      C 1066   1.985   2.763  12.500  0.0000  0.0000  0.0000
    1GRA      C 1067   2.269   2.763  12.500 -0.0000  0.0000  0.0000
    1GRA      C 1068   2.411   2.763  12.500  0.0000  0.0000  0.0000
    1GRA      C 1069   2.694   2.763  12.500  0.0000  0.0000  0.0000
    1GRA      C 1070   2.836   2.763  12.500  0.0000  0.0000  0.0000
    1GRA      C 1071   3.120   2.763  12.500 -0.0000  0.0000 -0.0000
    1GRA      C 1072   3.262   2.763  12.500  0.0000  0.0000 -0.0000
    1GRA      C 1073   3.545   2.763  12.500 -0.0000  0.0000 -0.0000
    1GRA      C 1074   3.687   2.763  12.500  0.0000  0.0000  0.0000
    1GRA      C 1075   3.971   2.763  12.500 -0.0000  0.0000  0.0000
    1GRA      C 1076   4.112   2.763  12.500  0.0000  0.0000  0.0000
    1GRA      C 1077   4.396   2.763  12.500 -0.0000  0.0000  0.0000
    1GRA      C 1078   4.538   2.763  12.500  0.0000  0.0000  0.0000
    1GRA      C 1079   4.821   2.763  12.500  0.0000  0.0000  0.0000
    1GRA      C 1080   4.963   2.763  12.500  0.0000  0.0000  0.0000
    1GRA      C 1081   5.247   2.763  12.500 -0.0000  0.0000  0.0000
    1GRA      C 1082   5.389   2.763  12.500 -0.0000  0.0000  0.0000
    1GRA      C 1083   5.672   2.763  12.500 -0.0000  0.0000  0.0000
    1GRA      C 1084   5.814   2.763  12.500  0.0000  0.0000  0.0000
    1GRA      C 1085   6.098   2.763  12.500 -0.0000  0.0000  0.0000
    1GRA      C 1086   6.239   2.763  12.500  0.0000  0.0000  0.0000
    1GRA      C 1087   6.523   2.763  12.500 -0.0000  0.0000  0.0000
    1GRA      C 1088   6.665   2.763  12.500  0.0000  0.0000  0.0000
    1GRA      C 1089   6.948   2.763  12.500  0.0000  0.0000  0.0000
    1GRA      C 1090   7.090   2.763  12.500  0.0000  0.0000  0.0000
    1GRA      C 1091   7.374   2.763  12.500 -0.0000  0.0000  0.0000
    1GRA      C 1092   7.516   2.763  12.500  0.0000  0.0000  0.0000
    1GRA      C 1093   7.799   2.763  12.500 -0.0000  0.0000  0.0000
    1GRA      C 1094   7.941   2.763  12.500  0.0000  0.0000  0.0000
    1GRA      C 1095   8.225   2.763  12.500 -0.0000  0.0000  0.0000
    1GRA      C 1096   8.366   2.763  12.500  0.0000  0.0000  0.0000
    1GRA      C 1097   8.650   2.763  12.500 -0.0000  0.0000  0.0000
    1GRA      C 1098   8.792   2.763  12.500  0.0000  0.0000  0.0000
    1GRA      C 1099   9.075   2.763  12.500  0.0000  0.0000  0.0000
    1GRA      C 1100   9.217   2.763  12.500  0.0000  0.0000  0.0000
    1GRA      C 1101   9.501   2.763  12.500 -0.0000  0.0000  0.0000
    1GRA      C 1102   9.643   2.763  12.500  0.0000  0.0000  0.0000
    1GRA      C 1103   9.926   2.763  12.500 -0.0000  0.0000  0.0000
    1GRA      C 1104  10.068   2.763  12.500  0.0000  0.0000  0.0000
    1GRA      C 1105   0.071   2.885  12.500  0.0000 -0.0000  0.0000
    1GRA      C 1106   0.355   2.885  12.500 -0.0000 -0.0000  0.0000
    1GRA      C 1107   0.496   2.885  12.500  0.0000 -0.0000  0.0000
    1GRA      C 1108   0.780   2.885  12.500 -0.0000 -0.0000  0.0000
    1GRA      C 1109   0.922   2.885  12.500  0.0000 -0.0000  0.0000
    1GRA      C 1110   1.205   2.885  12.500  0.0000 -0.0000  0.0000
    1GRA      C 1111   1.347   2.885  12.500  0.0000 -0.0000  0.0000
    1GRA      C 1112   1.631   2.885  12.500 -0.0000 -0.0000  0.0000
    1GRA      C 1113   1.773   2.885  12.500  0.0000 -0.0000  0.0000
    1GRA      C 1114   2.056   2.885  12.500 -0.0000 -0.0000  0.0000
    1GRA      C 1115   2.198   2.885  12.500  0.0000 -0.0000  0.0000
    1GRA      C 1116   2.482   2.885  12.500 -0.0000 -0.0000  0.0000
    1GRA      C 1117   2.624   2.885  12.500 -0.0000 -0.0000  0.0000
    1GRA      C 1118   2.907   2.885  12.500 -0.0000 -0.0000  0.0000
    1GRA      C 1119   3.049   2.885  12.500  0.0000 -0.0000  0.0000
    1GRA      C 1120   3.333   2.885  12.500 -0.0000 -0.0000 -0.0000
    1GRA      C 1121   3.474   2.885  12.500  0.0000 -0.0000 -0.0000
    1GRA      C 1122   3.758   2.885  12.500 -0.0000 -0.0000  0.0000
    1GRA      C 1123   3.900   2.885  12.500  0.0000 -0.0000  0.0000
    1GRA      C 1124   4.183   2.885  12.500 -0.0000 -0.0000  0.0000
    1GRA      C 1125   4.325   2.885  12.500  0.0000 -0.0000  0.0000
    1GRA      C 1126   4.609   2.885  12.500 -0.0000 -0.0000  0.0000
    1GRA      C 1127   4.751   2.885  12.500 -0.0000 -0.0000  0.0000
    1GRA      C 1128   5.034   2.885  12.500 -0.0000 -0.0000  0.0000
    1GRA      C 1129   5.176   2.885  12.500  0.0000 -0.0000  0.0000
    1GRA      C 1130   5.459   2.885  12.500  0.0000 -0.0000  0.0000
    1GRA      C 1131   5.601   2.885  12.500  0.0000 -0.0000  0.0000
    1GRA      C 1132   5.885   2.885  12.500 -0.0000 -0.0000  0.0000
    1GRA      C 1133   6.027   2.885  12.500  0.0000 -0.0000  0.0000
    1GRA      C 1134   6.310   2.885  12.500 -0.0000 -0.0000  0.0000
    1GRA      C 1135   6.452   2.885  12.500  0.0000 -0.0000  0.0000
    1GRA      C 1136   6.736   2.885  12.500 -0.0000 -0.0000  0.0000
    1GRA      C 1137   6.878   2.885  12.500 -0.0000 -0.0000  0.0000
    1GRA      C 1138   7.161   2.885  12.500 -0.0000 -0.0000  0.0000
    1GRA      C 1139   7.303   2.885  12.500  0.0000 -0.0000  0.0000
    1GRA      C 1140   7.587   2.885  12.500 -0.0000 -0.0000  0.0000
    1GRA      C 1141   7.728   2.885  12.500  0.0000 -0.0000  0.0000
    1GRA      C 1142   8.012   2.885  12.500 -0.0000 -0.0000  0.0000
    1GRA      C 1143   8.154   2.885  12.500  0.0000 -0.0000  0.0000
    1GRA      C 1144   8.437   2.885  12.500 -0.0000 -0.0000  0.0000
    1GRA      C 1145   8.579   2.885  12.500  0.0000 -0.0000  0.0000
    1GRA      C 1146   8.863   2.885  12.500 -0.0000 -0.0000  0.0000
    1GRA      C 1147   9.005   2.885  12.500 -0.0000 -0.0000  0.0000
    1GRA      C 1148   9.288   2.885  12.500 -0.0000 -0.0000  0.0000
    1GRA      C 1149   9.430   2.885  12.500  0.0000 -0.0000  0.0000
    1GRA      C 1150   9.714   2.885  12.500 -0.0000 -0.0000  0.0000
    1GRA      C 1151   9.855   2.885  12.500  0.0000 -0.0000  0.0000
    1GRA      C 1152  10.139   2.885  12.500 -0.0000 -0.0000  0.0000
    1GRA      C 1153   0.142   3.008  12.500 -0.0000  0.0000  0.0000
    1GRA      C 1154   0.284   3.008  12.500  0.0000  0.0000  0.0000
    1GRA      C 1155   0.567   3.008  12.500 -0.0000  0.0000  0.0000
    1GRA      C 1156   0.709   3.008  12.500  0.0000  0.0000  0.0000
    1GRA      C 1157   0.993   3.008  12.500 -0.0000  0.0000  0.0000
    1GRA      C 1158   1.135   3.008  12.500 -0.0000  0.0000  0.0000
    1GRA      C 1159   1.418   3.008  12.500 -0.0000  0.0000  0.0000
    1GRA      C 1160   1.560   3.008  12.500  0.0000  0.0000  0.0000
    1GRA      C 1161   1.844   3.008  12.500 -0.0000  0.0000  0.0000
    1GRA      C 1162   1.985   3.008  12.500  0.0000  0.0000  0.0000
    1GRA      C 1163   2.269   3.008  12.500 -0.0000  0.0000  0.0000
    1GRA      C 1164   2.411   3.008  12.500  0.0000  0.0000  0.0000
    1GRA      C 1165   2.694   3.008  12.500  0.0000  0.0000  0.0000
    1GRA      C 1166   2.836   3.008  12.500  0.0000  0.0000  0.0000
    1GRA      C 1167   3.120   3.008  12.500 -0.0000  0.0000  0.0000
    1GRA      C 1168   3.262   3.008  12.500  0.0000  0.0000 -0.0000
    1GRA      C 1169   3.545   3.008  12.500 -0.0000  0.0000 -0.0000
    1GRA      C 1170   3.687   3.008  12.500  0.0000  0.0000 -0.0000
    1GRA      C 1171   3.971   3.008  12.500 -0.0000  0.0000  0.0000
    1GRA      C 1172   4.112   3.008  12.500  0.0000  0.0000  0.0000
    1GRA      C 1173   4.396   3.008  12.500 -0.0000  0.0000  0.0000
    1GRA      C 1174   4.538   3.008  12.500  0.0000  0.0000  0.0000
    1GRA      C 1175   4.821   3.008  12.500  0.0000  0.0000  0.0000
    1GRA      C 1176   4.963   3.008  12.500  0.0000  0.0000  0.0000
    1GRA      C 1177   5.247   3.008  12.500 -0.0000  0.0000  0.0000
    1GRA      C 1178   5.389   3.008  12.500 -0.0000  0.0000  0.0000
    1GRA      C 1179   5.672   3.008  12.500 -0.0000  0.0000  0.0000
    1GRA      C 1180   5.814   3.008  12.500  0.0000  0.0000  0.0000
    1GRA      C 1181   6.098   3.008  12.500 -0.0000  0.0000  0.0000
    1GRA      C 1182   6.239   3.008  12.500  0.0000  0.0000  0.0000
    1GRA      C 1183   6.523   3.008  12.500 -0.0000  0.0000  0.0000
    1GRA      C 1184   6.665   3.008  12.500  0.0000  0.0000  0.0000
    1GRA      C 1185   6.948   3.008  12.500  0.0000  0.0000  0.0000
    1GRA      C 1186   7.090   3.008  12.500  0.0000  0.0000  0.0000
    1GRA      C 1187   7.374   3.008  12.500 -0.0000  0.0000  0.0000
    1GRA      C 1188   7.516   3.008  12.500  0.0000  0.0000  0.0000
    1GRA      C 1189   7.799   3.008  12.500 -0.0000  0.0000  0.0000
    1GRA      C 1190   7.941   3.008  12.500  0.0000  0.0000  0.0000
    1GRA      C 1191   8.225   3.008  12.500 -0.0000  0.0000  0.0000
    1GRA      C 1192   8.366   3.008  12.500  0.0000  0.0000  0.0000
    1GRA      C 1193   8.650   3.008  12.500 -0.0000  0.0000  0.0000
    1GRA      C 1194   8.792   3.008  12.500  0.0000  0.0000  0.0000
    1GRA      C 1195   9.075   3.008  12.500  0.0000  0.0000  0.0000
    1GRA      C 1196   9.217   3.008  12.500  0.0000  0.0000  0.0000
    1GRA      C 1197   9.501   3.008  12.500 -0.0000  0.0000  0.0000
    1GRA      C 1198   9.643   3.008  12.500  0.0000  0.0000  0.0000
    1GRA      C 1199   9.926   3.008  12.500 -0.0000  0.0000  0.0000
    1GRA      C 1200  10.068   3.008  12.500  0.0000  0.0000  0.0000
    1GRA      C 1201   0.071   3.131  12.500  0.0000 -0.0000  0.0000
    1GRA      C 1202   0.355   3.131  12.500 -0.0000 -0.0000  0.0000
    1GRA      C 1203   0.496   3.131  12.500  0.0000 -0.0000  0.0000
    1GRA      C 1204   0.780   3.131  12.500 -0.0000 -0.0000  0.0000
    1GRA      C 1205   0.922   3.131  12.500 -0.0000 -0.0000  0.0000
    1GRA      C 1206   1.205   3.131  12.500  0.0000 -0.0000  0.0000
    1GRA      C 1207   1.347   3.131  12.500  0.0000 -0.0000  0.0000
    1GRA      C 1208   1.631   3.131  12.500 -0.0000 -0.0000  0.0000
    1GRA      C 1209   1.773   3.131  12.500 -0.0000 -0.0000  0.0000
    1GRA      C 1210   2.056   3.131  12.500  0.0000 -0.0000  0.0000
    1GRA      C 1211   2.198   3.131  12.500  0.0000 -0.0000  0.0000
    1GRA      C 1212   2.482   3.131  12.500 -0.0000 -0.0000  0.0000
    1GRA      C 1213   2.624   3.131  12.500 -0.0000 -0.0000  0.0000
    1GRA      C 1214   2.907   3.131  12.500  0.0000 -0.0000  0.0000
    1GRA      C 1215   3.049   3.131  12.500  0.0000 -0.0000  0.0000
    1GRA      C 1216   3.333   3.131  12.500 -0.0000 -0.0000  0.0000
    1GRA      C 1217   3.474   3.131  12.500  0.0000  0.0000 -0.0000
    1GRA      C 1218   3.758   3.131  12.500 -0.0000 -0.0000 -0.0000
    1GRA      C 1219   3.900   3.131  12.500 -0.0000 -0.0000 -0.0000
    1GRA      C 1220   4.183   3.131  12.500  0.0000  0.0000  0.0000
    1GRA      C 1221   4.325   3.131  12.500  0.0000  0.0000  0.0000
    1GRA      C 1222   4.609   3.131  12.500 -0.0000 -0.0000  0.0000
    1GRA      C 1223   4.751   3.131  12.500 -0.0000 -0.0000  0.0000
    1GRA      C 1224   5.034   3.131  12.500  0.0000 -0.0000  0.0000
    1GRA      C 1225   5.176   3.131  12.500 -0.0000 -0.0000  0.0000
    1GRA      C 1226   5.459   3.131  12.500  0.0000 -0.0000  0.0000
    1GRA      C 1227   5.601   3.131  12.500  0.0000 -0.0000  0.0000
    1GRA      C 1228   5.885   3.131  12.500 -0.0000 -0.0000  0.0000
    1GRA      C 1229   6.027   3.131  12.500 -0.0000 -0.0000  0.0000
    1GRA      C 1230   6.310   3.131  12.500  0.0000 -0.0000  0.0000
    1GRA      C 1231   6.452   3.131  12.500  0.0000 -0.0000  0.0000
    1GRA      C 1232   6.736   3.131  12.500 -0.0000 -0.0000  0.0000
    1GRA      C 1233   6.878   3.131  12.500 -0.0000 -0.0000  0.0000
    1GRA      C 1234   7.161   3.131  12.500  0.0000 -0.0000  0.0000
    1GRA      C 1235   7.303   3.131  12.500  0.0000 -0.0000  0.0000
    1GRA      C 1236   7.587   3.131  12.500 -0.0000 -0.0000  0.0000
    1GRA      C 1237   7.728   3.131  12.500  0.0000 -0.0000  0.0000
    1GRA      C 1238   8.012   3.131  12.500 -0.0000 -0.0000  0.0000
    1GRA      C 1239   8.154   3.131  12.500 -0.0000 -0.0000  0.0000
    1GRA      C 1240   8.437   3.131  12.500  0.0000 -0.0000  0.0000
    1GRA      C 1241   8.579   3.131  12.500  0.0000 -0.0000  0.0000
    1GRA      C 1242   8.863   3.131  12.500 -0.0000 -0.0000  0.0000
    1GRA      C 1243   9.005   3.131  12.500 -0.0000 -0.0000  0.0000
    1GRA      C 1244   9.288   3.131  12.500  0.0000 -0.0000  0.0000
    1GRA      C 1245   9.430   3.131  12.500  0.0000 -0.0000  0.0000
    1GRA      C 1246   9.714   3.131  12.500 -0.0000 -0.0000  0.0000
    1GRA      C 1247   9.855   3.131  12.500  0.0000 -0.0000  0.0000
    1GRA      C 1248  10.139   3.131  12.500 -0.0000 -0.0000  0.0000
    1GRA      C 1249   0.142   3.254  12.500 -0.0000 -0.0000  0.0000
    1GRA      C 1250   0.284   3.254  12.500  0.0000 -0.0000  0.0000
    1GRA      C 1251   0.567   3.254  12.500 -0.0000 -0.0000  0.0000
    1GRA      C 1252   0.709   3.254  12.500  0.0000 -0.0000  0.0000
    1GRA      C 1253   0.993   3.254  12.500 -0.0000 -0.0000  0.0000
    1GRA      C 1254   1.135   3.254  12.500 -0.0000 -0.0000  0.0000
    1GRA      C 1255   1.418   3.254  12.500 -0.0000 -0.0000  0.0000
    1GRA      C 1256   1.560   3.254  12.500  0.0000 -0.0000  0.0000
    1GRA      C 1257   1.844   3.254  12.500 -0.0000 -0.0000  0.0000
    1GRA      C 1258   1.985   3.254  12.500  0.0000 -0.0000  0.0000
    1GRA      C 1259   2.269   3.254  12.500 -0.0000 -0.0000  0.0000
    1GRA      C 1260   2.411   3.254  12.500  0.0000 -0.0000  0.0000
    1GRA      C 1261   2.694   3.254  12.500  0.0000 -0.0000  0.0000
    1GRA      C 1262   2.836   3.254  12.500  0.0000 -0.0000  0.0000
    1GRA      C 1263   3.120   3.254  12.500 -0.0000 -0.0000  0.0000
    1GRA      C 1264   3.262   3.254  12.500  0.0000 -0.0000  0.0000
    1GRA      C 1265   3.545   3.254  12.500 -0.0000 -0.0000 -0.0000
    1GRA      C 1266   3.687   3.254  12.500  0.0000 -0.0000 -0.0000
    1GRA      C 1267   3.971   3.254  12.500 -0.0000 -0.0000 -0.0000
    1GRA      C 1268   4.112   3.254  12.500  0.0000 -0.0000  0.0000
    1GRA      C 1269   4.396   3.254  12.500 -0.0000 -0.0000  0.0000
    1GRA      C 1270   4.538   3.254  12.500  0.0000 -0.0000  0.0000
    1GRA      C 1271   4.821   3.254  12.500  0.0000 -0.0000  0.0000
    1GRA      C 1272   4.963   3.254  12.500  0.0000 -0.0000  0.0000
    1GRA      C 1273   5.247   3.254  12.500 -0.0000 -0.0000  0.0000
    1GRA      C 1274   5.389   3.254  12.500 -0.0000 -0.0000  0.0000
    1GRA      C 1275   5.672   3.254  12.500 -0.0000 -0.0000  0.0000
    1GRA      C 1276   5.814   3.254  12.500  0.0000 -0.0000  0.0000
    1GRA      C 1277   6.098   3.254  12.500 -0.0000 -0.0000  0.0000
    1GRA      C 1278   6.239   3.254  12.500  0.0000 -0.0000  0.0000
    1GRA      C 1279   6.523   3.254  12.500 -0.0000 -0.0000  0.0000
    1GRA      C 1280   6.665   3.254  12.500  0.0000 -0.0000  0.0000
    1GRA      C 1281   6.948   3.254  12.500  0.0000 -0.0000  0.0000
    1GRA      C 1282   7.090   3.254  12.500  0.0000 -0.0000  0.0000
    1GRA      C 1283   7.374   3.254  12.500 -0.0000 -0.0000  0.0000
    1GRA      C 1284   7.516   3.254  12.500  0.0000 -0.0000  0.0000
    1GRA      C 1285   7.799   3.254  12.500 -0.0000 -0.0000  0.0000
    1GRA      C 1286   7.941   3.254  12.500  0.0000 -0.0000  0.0000
    1GRA      C 1287   8.225   3.254  12.500 -0.0000 -0.0000  0.0000
    1GRA      C 1288   8.366   3.254  12.500  0.0000 -0.0000  0.0000
    1GRA      C 1289   8.650   3.254  12.500 -0.0000 -0.0000  0.0000
    1GRA      C 1290   8.792   3.254  12.500  0.0000 -0.0000  0.0000
    1GRA      C 1291   9.075   3.254  12.500  0.0000 -0.0000  0.0000
    1GRA      C 1292   9.217   3.254  12.500  0.0000 -0.0000  0.0000
    1GRA      C 1293   9.501   3.254  12.500 -0.0000 -0.0000  0.0000
    1GRA      C 1294   9.643   3.254  12.500  0.0000 -0.0000  0.0000
    1GRA      C 1295   9.926   3.254  12.500 -0.0000 -0.0000  0.0000
    1GRA      C 1296  10.068   3.254  12.500  0.0000 -0.0000  0.0000
    1GRA      C 1297   0.071   3.377  12.500  0.0000  0.0000  0.0000
    1GRA      C 1298   0.355   3.377  12.500 -0.0000  0.0000  0.0000
    1GRA      C 1299   0.496   3.377  12.500  0.0000  0.0000  0.0000
    1GRA      C 1300   0.780   3.377  12.500 -0.0000  0.0000  0.0000
    1GRA      C 1301   0.922   3.377  12.500  0.0000  0.0000  0.0000
    1GRA      C 1302   1.205   3.377  12.500  0.0000  0.0000  0.0000
    1GRA      C 1303   1.347   3.377  12.500  0.0000  0.0000  0.0000
    1GRA      C 1304   1.631   3.377  12.500 -0.0000  0.0000  0.0000
    1GRA      C 1305   1.773   3.377  12.500  0.0000  0.0000  0.0000
    1GRA      C 1306   2.056   3.377  12.500 -0.0000  0.0000  0.0000
    1GRA      C 1307   2.198   3.377  12.500  0.0000  0.0000  0.0000
    1GRA      C 1308   2.482   3.377  12.500 -0.0000  0.0000  0.0000
    1GRA      C 1309   2.624   3.377  12.500 -0.0000  0.0000  0.0000
    1GRA      C 1310   2.907   3.377  12.500 -0.0000  0.0000  0.0000
    1GRA      C 1311   3.049   3.377  12.500  0.0000  0.0000  0.0000
    1GRA      C 1312   3.333   3.377  12.500 -0.0000  0.0000  0.0000
    1GRA      C 1313   3.474   3.377  12.500  0.0000  0.0000  0.0000
    1GRA      C 1314   3.758   3.377  12.500 -0.0000  0.0000 -0.0000
    1GRA      C 1315   3.900   3.377  12.500  0.0000  0.0000 -0.0000
    1GRA      C 1316   4.183   3.377  12.500 -0.0000  0.0000 -0.0000
    1GRA      C 1317   4.325   3.377  12.500  0.0000  0.0000  0.0000
    1GRA      C 1318   4.609   3.377  12.500 -0.0000  0.0000  0.0000
    1GRA      C 1319   4.751   3.377  12.500 -0.0000  0.0000  0.0000
    1GRA      C 1320   5.034   3.377  12.500 -0.0000  0.0000  0.0000
    1GRA      C 1321   5.176   3.377  12.500  0.0000  0.0000  0.0000
    1GRA      C 1322   5.459   3.377  12.500  0.0000  0.0000  0.0000
    1GRA      C 1323   5.601   3.377  12.500  0.0000  0.0000  0.0000
    1GRA      C 1324   5.885   3.377  12.500 -0.0000  0.0000  0.0000
    1GRA      C 1325   6.027   3.377  12.500  0.0000  0.0000  0.0000
    1GRA      C 1326   6.310   3.377  12.500 -0.0000  0.0000  0.0000
    1GRA      C 1327   6.452   3.377  12.500  0.0000  0.0000  0.0000
    1GRA      C 1328   6.736   3.377  12.500 -0.0000  0.0000  0.0000
    1GRA      C 1329   6.878   3.377  12.500 -0.0000  0.0000  0.0000
    1GRA      C 1330   7.161   3.377  12.500 -0.0000  0.0000  0.0000
    1GRA      C 1331   7.303   3.377  12.500  0.0000  0.0000  0.0000
    1GRA      C 1332   7.587   3.377  12.500 -0.0000  0.0000  0.0000
    1GRA      C 1333   7.728   3.377  12.500  0.0000  0.0000  0.0000
    1GRA      C 1334   8.012   3.377  12.500 -0.0000  0.0000  0.0000
    1GRA      C 1335   8.154   3.377  12.500  0.0000  0.0000  0.0000
    1GRA      C 1336   8.437   3.377  12.500 -0.0000  0.0000  0.0000
    1GRA      C 1337   8.579   3.377  12.500  0.0000  0.0000  0.0000
    1GRA      C 1338   8.863   3.377  12.500 -0.0000  0.0000  0.0000
    1GRA      C 1339   9.005   3.377  12.500 -0.0000  0.0000  0.0000
    1GRA      C 1340   9.288   3.377  12.500 -0.0000  0.0000  0.0000
    1GRA      C 1341   9.430   3.377  12.500  0.0000  0.0000  0.0000
    1GRA      C 1342   9.714   3.377  12.500 -0.0000  0.0000  0.0000
    1GRA      C 1343   9.855   3.377  12.500  0.0000  0.0000  0.0000
    1GRA      C 1344  10.139   3.377  12.500 -0.0000  0.0000  0.0000
    1GRA      C 1345   0.142   3.499  12.500 -0.0000 -0.0000  0.0000
    1GRA      C 1346   0.284   3.499  12.500  0.0000 -0.0000  0.0000
    1GRA      C 1347   0.567   3.499  12.500 -0.0000 -0.0000  0.0000
    1GRA      C 1348   0.709   3.499  12.500  0.0000 -0.0000  0.0000
    1GRA      C 1349   0.993   3.499  12.500 -0.0000 -0.0000  0.0000
    1GRA      C 1350   1.135   3.499  12.500 -0.0000 -0.0000  0.0000
    1GRA      C 1351   1.418   3.499  12.500 -0.0000 -0.0000  0.0000
    1GRA      C 1352   1.560   3.499  12.500  0.0000 -0.0000  0.0000
    1GRA      C 1353   1.844   3.499  12.500 -0.0000 -0.0000  0.0000
    1GRA      C 1354   1.985   3.499  12.500  0.0000 -0.0000  0.0000
    1GRA      C 1355   2.269   3.499  12.500 -0.0000 -0.0000  0.0000
    1GRA      C 1356   2.411   3.499  12.500  0.0000 -0.0000  0.0000
    1GRA      C 1357   2.694   3.499  12.500  0.0000 -0.0000  0.0000
    1GRA      C 1358   2.836   3.499  12.500  0.0000 -0.0000  0.0000
    1GRA      C 1359   3.120   3.499  12.500 -0.0000 -0.0000  0.0000
    1GRA      C 1360   3.262   3.499  12.500  0.0000 -0.0000  0.0000
    1GRA      C 1361   3.545   3.499  12.500 -0.0000 -0.0000  0.0000
    1GRA      C 1362   3.687   3.499  12.500  0.0000 -0.0000  0.0000
    1GRA      C 1363   3.971   3.499  12.500 -0.0000 -0.0000 -0.0000
    1GRA      C 1364   4.112   3.499  12.500  0.0000 -0.0000 -0.0000
    1GRA      C 1365   4.396   3.499  12.500 -0.0000 -0.0000  0.0000
    1GRA      C 1366   4.538   3.499  12.500  0.0000 -0.0000  0.0000
    1GRA      C 1367   4.821   3.499  12.500  0.0000 -0.0000  0.0000
    1GRA      C 1368   4.963   3.499  12.500  0.0000 -0.0000  0.0000
    1GRA      C 1369   5.247   3.499  12.500 -0.0000 -0.0000  0.0000
    1GRA      C 1370   5.389   3.499  12.500 -0.0000 -0.0000  0.0000
    1GRA      C 1371   5.672   3.499  12.500 -0.0000 -0.0000  0.0000
    1GRA      C 1372   5.814   3.499  12.500  0.0000 -0.0000  0.0000
    1GRA      C 1373   6.098   3.499  12.500 -0.0000 -0.0000  0.0000
    1GRA      C 1374   6.239   3.499  12.500  0.0000 -0.0000  0.0000
    1GRA      C 1375   6.523   3.499  12.500 -0.0000 -0.0000  0.0000
    1GRA      C 1376   6.665   3.499  12.500  0.0000 -0.0000  0.0000
    1GRA      C 1377   6.948   3.499  12.500  0.0000 -0.0000  0.0000
    1GRA      C 1378   7.090   3.499  12.500  0.0000 -0.0000  0.0000
    1GRA      C 1379   7.374   3.499  12.500 -0.0000 -0.0000  0.0000
    1GRA      C 1380   7.516   3.499  12.500  0.0000 -0.0000  0.0000
    1GRA      C 1381   7.799   3.499  12.500 -0.0000 -0.0000  0.0000
    1GRA      C 1382   7.941   3.499  12.500  0.0000 -0.0000  0.0000
    1GRA      C 1383   8.225   3.499  12.500 -0.0000 -0.0000  0.0000
    1GRA      C 1384   8.366   3.499  12.500  0.0000 -0.0000  0.0000
    1GRA      C 1385   8.650   3.499  12.500 -0.0000 -0.0000  0.0000
    1GRA      C 1386   8.792   3.499  12.500  0.0000 -0.0000  0.0000
    1GRA      C 1387   9.075   3.499  12.500  0.0000 -0.0000  0.0000
    1GRA      C 1388   9.217   3.499  12.500  0.0000 -0.0000  0.0000
    1GRA      C 1389   9.501   3.499  12.500 -0.0000 -0.0000  0.0000
    1GRA      C 1390   9.643   3.499  12.500  0.0000 -0.0000  0.0000
    1GRA      C 1391   9.926   3.499  12.500 -0.0000 -0.0000  0.0000
    1GRA      C 1392  10.068   3.499  12.500  0.0000 -0.0000  0.0000
    1GRA      C 1393   0.071   3.622  12.500  0.0000  0.0000  0.0000
    1GRA      C 1394   0.355   3.622  12.500 -0.0000  0.0000  0.0000
    1GRA      C 1395   0.496   3.622  12.500  0.0000  0.0000  0.0000
    1GRA      C 1396   0.780   3.622  12.500 -0.0000  0.0000  0.0000
    1GRA      C 1397   0.922   3.622  12.500  0.0000  0.0000  0.0000
    1GRA      C 1398   1.205   3.622  12.500  0.0000  0.0000  0.0000
    1GRA      C 1399   1.347   3.622  12.500  0.0000  0.0000  0.0000
    1GRA      C 1400   1.631   3.622  12.500 -0.0000  0.0000  0.0000
    1GRA      C 1401   1.773   3.622  12.500  0.0000  0.0000  0.0000
    1GRA      C 1402   2.056   3.622  12.500 -0.0000  0.0000  0.0000
    1GRA      C 1403   2.198   3.622  12.500  0.0000  0.0000  0.0000
    1GRA      C 1404   2.482   3.622  12.500 -0.0000  0.0000  0.0000
    1GRA      C 1405   2.624   3.622  12.500 -0.0000  0.0000  0.0000
    1GRA      C 1406   2.907   3.622  12.500 -0.0000  0.0000  0.0000
    1GRA      C 1407   3.049   3.622  12.500  0.0000  0.0000  0.0000
    1GRA      C 1408   3.333   3.622  12.500 -0.0000  0.0000  0.0000
    1GRA      C 1409   3.474   3.622  12.500  0.0000  0.0000  0.0000
    1GRA      C 1410   3.758   3.622  12.500 -0.0000  0.0000  0.0000
    1GRA      C 1411   3.900   3.622  12.500  0.0000  0.0000 -0.0000
    1GRA      C 1412   4.183   3.622  12.500 -0.0000  0.0000 -0.0000
    1GRA      C 1413   4.325   3.622  12.500  0.0000  0.0000 -0.0000
    1GRA      C 1414   4.609   3.622  12.500 -0.0000  0.0000  0.0000
    1GRA      C 1415   4.751   3.622  12.500 -0.0000  0.0000  0.0000
    1GRA      C 1416   5.034   3.622  12.500 -0.0000  0.0000  0.0000
    1GRA      C 1417   5.176   3.622  12.500  0.0000  0.0000  0.0000
    1GRA      C 1418   5.459   3.622  12.500  0.0000  0.0000  0.0000
    1GRA      C 1419   5.601   3.622  12.500  0.0000  0.0000  0.0000
    1GRA      C 1420   5.885   3.622  12.500 -0.0000  0.0000  0.0000
    1GRA      C 1421   6.027   3.622  12.500  0.0000  0.0000  0.0000
    1GRA      C 1422   6.310   3.622  12.500 -0.0000  0.0000  0.0000
    1GRA      C 1423   6.452   3.622  12.500  0.0000  0.0000  0.0000
    1GRA      C 1424   6.736   3.622  12.500 -0.0000  0.0000  0.0000
    1GRA      C 1425   6.878   3.622  12.500 -0.0000  0.0000  0.0000
    1GRA      C 1426   7.161   3.622  12.500 -0.0000  0.0000  0.0000
    1GRA      C 1427   7.303   3.622  12.500  0.0000  0.0000  0.0000
    1GRA      C 1428   7.587   3.622  12.500 -0.0000  0.0000  0.0000
    1GRA      C 1429   7.728   3.622  12.500  0.0000  0.0000  0.0000
    1GRA      C 1430   8.012   3.622  12.500 -0.0000  0.0000  0.0000
    1GRA      C 1431   8.154   3.622  12.500  0.0000  0.0000  0.0000
    1GRA      C 1432   8.437   3.622  12.500 -0.0000  0.0000  0.0000
    1GRA      C 1433   8.579   3.622  12.500  0.0000  0.0000  0.0000
    1GRA      C 1434   8.863   3.622  12.500 -0.0000  0.0000  0.0000
    1GRA      C 1435   9.005   3.622  12.500 -0.0000  0.0000  0.0000
    1GRA      C 1436   9.288   3.622  12.500 -0.0000  0.0000  0.0000
    1GRA      C 1437   9.430   3.622  12.500  0.0000  0.0000  0.0000
    1GRA      C 1438   9.714   3.622  12.500 -0.0000  0.0000  0.0000
    1GRA      C 1439   9.855   3.622  12.500  0.0000  0.0000  0.0000
    1GRA      C 1440  10.139   3.622  12.500 -0.0000  0.0000  0.0000
    1GRA      C 1441   0.142   3.745  12.500  0.0000  0.0000  0.0000
    1GRA      C 1442   0.284   3.745  12.500 -0.0000  0.0000  0.0000
    1GRA      C 1443   0.567   3.745  12.500  0.0000  0.0000  0.0000
    1GRA      C 1444   0.709   3.745  12.500  0.0000  0.0000  0.0000
    1GRA      C 1445   0.993   3.745  12.500 -0.0000  0.0000  0.0000
    1GRA      C 1446   1.135   3.745  12.500 -0.0000  0.0000  0.0000
    1GRA      C 1447   1.418   3.745  12.500  0.0000  0.0000  0.0000
    1GRA      C 1448   1.560   3.745  12.500  0.0000  0.0000  0.0000
    1GRA      C 1449   1.844   3.745  12.500 -0.0000  0.0000  0.0000
    1GRA      C 1450   1.985   3.745  12.500  0.0000  0.0000  0.0000
    1GRA      C 1451   2.269   3.745  12.500 -0.0000  0.0000  0.0000
    1GRA      C 1452   2.411   3.745  12.500 -0.0000  0.0000  0.0000
    1GRA      C 1453   2.694   3.745  12.500  0.0000  0.0000  0.0000
    1GRA      C 1454   2.836   3.745  12.500  0.0000  0.0000  0.0000
    1GRA      C 1455   3.120   3.745  12.500 -0.0000  0.0000  0.0000
    1GRA      C 1456   3.262   3.745  12.500 -0.0000  0.0000  0.0000
    1GRA      C 1457   3.545   3.745  12.500  0.0000 -0.0000  0.0000
    1GRA      C 1458   3.687   3.745  12.500  0.0000 -0.0000  0.0000
    1GRA      C 1459   3.971   3.745  12.500 -0.0000  0.0000 -0.0000
    1GRA      C 1460   4.112   3.745  12.500  0.0000  0.0000 -0.0000
    1GRA      C 1461   4.396   3.745  12.500 -0.0000  0.0000 -0.0000
    1GRA      C 1462   4.538   3.745  12.500 -0.0000 -0.0000 -0.0000
    1GRA      C 1463   4.821   3.745  12.500  0.0000  0.0000  0.0000
    1GRA      C 1464   4.963   3.745  12.500  0.0000  0.0000  0.0000
    1GRA      C 1465   5.247   3.745  12.500 -0.0000  0.0000  0.0000
    1GRA      C 1466   5.389   3.745  12.500 -0.0000  0.0000  0.0000
    1GRA      C 1467   5.672   3.745  12.500  0.0000  0.0000  0.0000
    1GRA      C 1468   5.814   3.745  12.500  0.0000  0.0000  0.0000
    1GRA      C 1469   6.098   3.745  12.500 -0.0000  0.0000  0.0000
    1GRA      C 1470   6.239   3.745  12.500  0.0000  0.0000  0.0000
    1GRA      C 1471   6.523   3.745  12.500 -0.0000  0.0000  0.0000
    1GRA      C 1472   6.665   3.745  12.500 -0.0000  0.0000  0.0000
    1GRA      C 1473   6.948   3.745  12.500  0.0000  0.0000  0.0000
    1GRA      C 1474   7.090   3.745  12.500  0.0000  0.0000  0.0000
    1GRA      C 1475   7.374   3.745  12.500 -0.0000  0.0000  0.0000
    1GRA      C 1476   7.516   3.745  12.500 -0.0000  0.0000  0.0000
    1GRA      C 1477   7.799   3.745  12.500  0.0000  0.0000  0.0000
    1GRA      C 1478   7.941   3.745  12.500  0.0000  0.0000  0.0000
    1GRA      C 1479   8.225   3.745  12.500 -0.0000  0.0000  0.0000
    1GRA      C 1480   8.366   3.745  12.500  0.0000  0.0000  0.0000
    1GRA      C 1481   8.650   3.745  12.500 -0.0000  0.0000  0.0000
    1GRA      C 1482   8.792   3.745  12.500 -0.0000  0.0000  0.0000
    1GRA      C 1483   9.075   3.745  12.500  0.0000  0.0000  0.0000
    1GRA      C 1484   9.217   3.745  12.500  0.0000  0.0000  0.0000
    1GRA      C 1485   9.501   3.745  12.500 -0.0000  0.0000  0.0000
    1GRA      C 1486   9.643   3.745  12.500 -0.0000  0.0000  0.0000
    1GRA      C 1487   9.926   3.745  12.500  0.0000  0.0000  0.0000
    1GRA      C 1488  10.068   3.745  12.500 -0.0000  0.0000  0.0000
    1GRA      C 1489   0.071   3.868  12.500  0.0000 -0.0000  0.0000
    1GRA      C 1490   0.355   3.868  12.500 -0.0000 -0.0000  0.0000
    1GRA      C 1491   0.496   3.868  12.500  0.0000 -0.0000  0.0000
    1GRA      C 1492   0.780   3.868  12.500 -0.0000 -0.0000  0.0000
    1GRA      C 1493   0.922   3.868  12.500  0.0000 -0.0000  0.0000
    1GRA      C 1494   1.205   3.868  12.500  0.0000 -0.0000  0.0000
    1GRA      C 1495   1.347   3.868  12.500  0.0000 -0.0000  0.0000
    1GRA      C 1496   1.631   3.868  12.500 -0.0000 -0.0000  0.0000
    1GRA      C 1497   1.773   3.868  12.500  0.0000 -0.0000  0.0000
    1GRA      C 1498   2.056   3.868  12.500 -0.0000 -0.0000  0.0000
    1GRA      C 1499   2.198   3.868  12.500  0.0000 -0.0000  0.0000
    1GRA      C 1500   2.482   3.868  12.500 -0.0000 -0.0000  0.0000
    1GRA      C 1501   2.624   3.868  12.500 -0.0000 -0.0000  0.0000
    1GRA      C 1502   2.907   3.868  12.500 -0.0000 -0.0000  0.0000
    1GRA      C 1503   3.049   3.868  12.500  0.0000 -0.0000  0.0000
    1GRA      C 1504   3.333   3.868  12.500 -0.0000 -0.0000  0.0000
    1GRA      C 1505   3.474   3.868  12.500  0.0000 -0.0000  0.0000
    1GRA      C 1506   3.758   3.868  12.500 -0.0000 -0.0000  0.0000
    1GRA      C 1507   3.900   3.868  12.500  0.0000 -0.0000  0.0000
    1GRA      C 1508   4.183   3.868  12.500 -0.0000 -0.0000  0.0000
    1GRA      C 1509   4.325   3.868  12.500  0.0000 -0.0000 -0.0000
    1GRA      C 1510   4.609   3.868  12.500 -0.0000 -0.0000 -0.0000
    1GRA      C 1511   4.751   3.868  12.500 -0.0000 -0.0000 -0.0000
    1GRA      C 1512   5.034   3.868  12.500 -0.0000 -0.0000  0.0000
    1GRA      C 1513   5.176   3.868  12.500  0.0000 -0.0000  0.0000
    1GRA      C 1514   5.459   3.868  12.500  0.0000 -0.0000  0.0000
    1GRA      C 1515   5.601   3.868  12.500  0.0000 -0.0000  0.0000
    1GRA      C 1516   5.885   3.868  12.500 -0.0000 -0.0000  0.0000
    1GRA      C 1517   6.027   3.868  12.500  0.0000 -0.0000  0.0000
    1GRA      C 1518   6.310   3.868  12.500 -0.0000 -0.0000  0.0000
    1GRA      C 1519   6.452   3.868  12.500  0.0000 -0.0000  0.0000
    1GRA      C 1520   6.736   3.868  12.500 -0.0000 -0.0000  0.0000
    1GRA      C 1521   6.878   3.868  12.500 -0.0000 -0.0000  0.0000
    1GRA      C 1522   7.161   3.868  12.500 -0.0000 -0.0000  0.0000
    1GRA      C 1523   7.303   3.868  12.500  0.0000 -0.0000  0.0000
    1GRA      C 1524   7.587   3.868  12.500 -0.0000 -0.0000  0.0000
    1GRA      C 1525   7.728   3.868  12.500  0.0000 -0.0000  0.0000
    1GRA      C 1526   8.012   3.868  12.500 -0.0000 -0.0000  0.0000
    1GRA      C 1527   8.154   3.868  12.500  0.0000 -0.0000  0.0000
    1GRA      C 1528   8.437   3.868  12.500 -0.0000 -0.0000  0.0000
    1GRA      C 1529   8.579   3.868  12.500  0.0000 -0.0000  0.0000
    1GRA      C 1530   8.863   3.868  12.500 -0.0000 -0.0000  0.0000
    1GRA      C 1531   9.005   3.868  12.500 -0.0000 -0.0000  0.0000
    1GRA      C 1532   9.288   3.868  12.500 -0.0000 -0.0000  0.0000
    1GRA      C 1533   9.430   3.868  12.500  0.0000 -0.0000  0.0000
    1GRA      C 1534   9.714   3.868  12.500 -0.0000 -0.0000  0.0000
    1GRA      C 1535   9.855   3.868  12.500  0.0000 -0.0000  0.0000
    1GRA      C 1536  10.139   3.868  12.500 -0.0000 -0.0000  0.0000
    1GRA      C 1537   0.142   3.991  12.500 -0.0000  0.0000  0.0000
    1GRA      C 1538   0.284   3.991  12.500  0.0000  0.0000  0.0000
    1GRA      C 1539   0.567   3.991  12.500 -0.0000  0.0000  0.0000
    1GRA      C 1540   0.709   3.991  12.500  0.0000  0.0000  0.0000
    1GRA      C 1541   0.993   3.991  12.500 -0.0000  0.0000  0.0000
    1GRA      C 1542   1.135   3.991  12.500 -0.0000  0.0000  0.0000
    1GRA      C 1543   1.418   3.991  12.500 -0.0000  0.0000  0.0000
    1GRA      C 1544   1.560   3.991  12.500  0.0000  0.0000  0.0000
    1GRA      C 1545   1.844   3.991  12.500 -0.0000  0.0000  0.0000
    1GRA      C 1546   1.985   3.991  12.500  0.0000  0.0000  0.0000
    1GRA      C 1547   2.269   3.991  12.500 -0.0000  0.0000  0.0000
    1GRA      C 1548   2.411   3.991  12.500  0.0000  0.0000  0.0000
    1GRA      C 1549   2.694   3.991  12.500  0.0000  0.0000  0.0000
    1GRA      C 1550   2.836   3.991  12.500  0.0000  0.0000  0.0000
    1GRA      C 1551   3.120   3.991  12.500 -0.0000  0.0000  0.0000
    1GRA      C 1552   3.262   3.991  12.500  0.0000  0.0000  0.0000
    1GRA      C 1553   3.545   3.991  12.500 -0.0000  0.0000  0.0000
    1GRA      C 1554   3.687   3.991  12.500  0.0000  0.0000  0.0000
    1GRA      C 1555   3.971   3.991  12.500 -0.0000  0.0000  0.0000
    1GRA      C 1556   4.112   3.991  12.500  0.0000  0.0000  0.0000
    1GRA      C 1557   4.396   3.991  12.500 -0.0000  0.0000 -0.0000
    1GRA      C 1558   4.538   3.991  12.500  0.0000  0.0000 -0.0000
    1GRA      C 1559   4.821   3.991  12.500  0.0000  0.0000 -0.0000
    1GRA      C 1560   4.963   3.991  12.500  0.0000  0.0000  0.0000
    1GRA      C 1561   5.247   3.991  12.500 -0.0000  0.0000  0.0000
    1GRA      C 1562   5.389   3.991  12.500 -0.0000  0.0000  0.0000
    1GRA      C 1563   5.672   3.991  12.500 -0.0000  0.0000  0.0000
    1GRA      C 1564   5.814   3.991  12.500  0.0000  0.0000  0.0000
    1GRA      C 1565   6.098   3.991  12.500 -0.0000  0.0000  0.0000
    1GRA      C 1566   6.239   3.991  12.500  0.0000  0.0000  0.0000
    1GRA      C 1567   6.523   3.991  12.500 -0.0000  0.0000  0.0000
    1GRA      C 1568   6.665   3.991  12.500  0.0000  0.0000  0.0000
    1GRA      C 1569   6.948   3.991  12.500  0.0000  0.0000  0.0000
    1GRA      C 1570   7.090   3.991  12.500  0.0000  0.0000  0.0000
    1GRA      C 1571   7.374   3.991  12.500 -0.0000  0.0000  0.0000
    1GRA      C 1572   7.516   3.991  12.500  0.0000  0.0000  0.0000
    1GRA      C 1573   7.799   3.991  12.500 -0.0000  0.0000  0.0000
    1GRA      C 1574   7.941   3.991  12.500  0.0000  0.0000  0.0000
    1GRA      C 1575   8.225   3.991  12.500 -0.0000  0.0000  0.0000
    1GRA      C 1576   8.366   3.991  12.500  0.0000  0.0000  0.0000
    1GRA      C 1577   8.650   3.991  12.500 -0.0000  0.0000  0.0000
    1GRA      C 1578   8.792   3.991  12.500  0.0000  0.0000  0.0000
    1GRA      C 1579   9.075   3.991  12.500  0.0000  0.0000  0.0000
    1GRA      C 1580   9.217   3.991  12.500  0.0000  0.0000  0.0000
    1GRA      C 1581   9.501   3.991  12.500 -0.0000  0.0000  0.0000
    1GRA      C 1582   9.643   3.991  12.500  0.0000  0.0000  0.0000
    1GRA      C 1583   9.926   3.991  12.500 -0.0000  0.0000  0.0000
    1GRA      C 1584  10.068   3.991  12.500  0.0000  0.0000  0.0000
    1GRA      C 1585   0.071   4.113  12.500  0.0000 -0.0000  0.0000
    1GRA      C 1586   0.355   4.113  12.500 -0.0000 -0.0000  0.0000
    1GRA      C 1587   0.496   4.113  12.500  0.0000 -0.0000  0.0000
    1GRA      C 1588   0.780   4.113  12.500 -0.0000 -0.0000  0.0000
    1GRA      C 1589   0.922   4.113  12.500  0.0000 -0.0000  0.0000
    1GRA      C 1590   1.205   4.113  12.500  0.0000 -0.0000  0.0000
    1GRA      C 1591   1.347   4.113  12.500  0.0000 -0.0000  0.0000
    1GRA      C 1592   1.631   4.113  12.500 -0.0000 -0.0000  0.0000
    1GRA      C 1593   1.773   4.113  12.500  0.0000 -0.0000  0.0000
    1GRA      C 1594   2.056   4.113  12.500 -0.0000 -0.0000  0.0000
    1GRA      C 1595   2.198   4.113  12.500  0.0000 -0.0000  0.0000
    1GRA      C 1596   2.482   4.113  12.500 -0.0000 -0.0000  0.0000
    1GRA      C 1597   2.624   4.113  12.500 -0.0000 -0.0000  0.0000
    1GRA      C 1598   2.907   4.113  12.500 -0.0000 -0.0000  0.0000
    1GRA      C 1599   3.049   4.113  12.500  0.0000 -0.0000  0.0000
    1GRA      C 1600   3.333   4.113  12.500 -0.0000 -0.0000  0.0000
    1GRA      C 1601   3.474   4.113  12.500  0.0000 -0.0000  0.0000
    1GRA      C 1602   3.758   4.113  12.500 -0.0000 -0.0000  0.0000
    1GRA      C 1603   3.900   4.113  12.500  0.0000 -0.0000  0.0000
    1GRA      C 1604   4.183   4.113  12.500 -0.0000 -0.0000  0.0000
    1GRA      C 1605   4.325   4.113  12.500  0.0000 -0.0000  0.0000
    1GRA      C 1606   4.609   4.113  12.500 -0.0000 -0.0000 -0.0000
    1GRA      C 1607   4.751   4.113  12.500 -0.0000 -0.0000 -0.0000
    1GRA      C 1608   5.034   4.113  12.500 -0.0000 -0.0000 -0.0000
    1GRA      C 1609   5.176   4.113  12.500  0.0000 -0.0000  0.0000
    1GRA      C 1610   5.459   4.113  12.500  0.0000 -0.0000  0.0000
    1GRA      C 1611   5.601   4.113  12.500  0.0000 -0.0000  0.0000
    1GRA      C 1612   5.885   4.113  12.500 -0.0000 -0.0000  0.0000
    1GRA      C 1613   6.027   4.113  12.500  0.0000 -0.0000  0.0000
    1GRA      C 1614   6.310   4.113  12.500 -0.0000 -0.0000  0.0000
    1GRA      C 1615   6.452   4.113  12.500  0.0000 -0.0000  0.0000
    1GRA      C 1616   6.736   4.113  12.500 -0.0000 -0.0000  0.0000
    1GRA      C 1617   6.878   4.113  12.500 -0.0000 -0.0000  0.0000
    1GRA      C 1618   7.161   4.113  12.500 -0.0000 -0.0000  0.0000
    1GRA      C 1619   7.303   4.113  12.500  0.0000 -0.0000  0.0000
    1GRA      C 1620   7.587   4.113  12.500 -0.0000 -0.0000  0.0000
    1GRA      C 1621   7.728   4.113  12.500  0.0000 -0.0000  0.0000
    1GRA      C 1622   8.012   4.113  12.500 -0.0000 -0.0000  0.0000
    1GRA      C 1623   8.154   4.113  12.500  0.0000 -0.0000  0.0000
    1GRA      C 1624   8.437   4.113  12.500 -0.0000 -0.0000  0.0000
    1GRA      C 1625   8.579   4.113  12.500  0.0000 -0.0000  0.0000
    1GRA      C 1626   8.863   4.113  12.500 -0.0000 -0.0000  0.0000
    1GRA      C 1627   9.005   4.113  12.500 -0.0000 -0.0000  0.0000
    1GRA      C 1628   9.288   4.113  12.500 -0.0000 -0.0000  0.0000
    1GRA      C 1629   9.430   4.113  12.500  0.0000 -0.0000  0.0000
    1GRA      C 1630   9.714   4.113  12.500 -0.0000 -0.0000  0.0000
    1GRA      C 1631   9.855   4.113  12.500  0.0000 -0.0000  0.0000
    1GRA      C 1632  10.139   4.113  12.500 -0.0000 -0.0000  0.0000
    1GRA      C 1633   0.142   4.236  12.500 -0.0000  0.0000  0.0000
    1GRA      C 1634   0.284   4.236  12.500  0.0000  0.0000  0.0000
    1GRA      C 1635   0.567   4.236  12.500 -0.0000  0.0000  0.0000
    1GRA      C 1636   0.709   4.236  12.500  0.0000  0.0000  0.0000
    1GRA      C 1637   0.993   4.236  12.500 -0.0000  0.0000  0.0000
    1GRA      C 1638   1.135   4.236  12.500 -0.0000  0.0000  0.0000
    1GRA      C 1639   1.418   4.236  12.500 -0.0000  0.0000  0.0000
    1GRA      C 1640   1.560   4.236  12.500  0.0000  0.0000  0.0000
    1GRA      C 1641   1.844   4.236  12.500 -0.0000  0.0000  0.0000
    1GRA      C 1642   1.985   4.236  12.500  0.0000  0.0000  0.0000
    1GRA      C 1643   2.269   4.236  12.500 -0.0000  0.0000  0.0000
    1GRA      C 1644   2.411   4.236  12.500  0.0000  0.0000  0.0000
    1GRA      C 1645   2.694   4.236  12.500  0.0000  0.0000  0.0000
    1GRA      C 1646   2.836   4.236  12.500  0.0000  0.0000  0.0000
    1GRA      C 1647   3.120   4.236  12.500 -0.0000  0.0000  0.0000
    1GRA      C 1648   3.262   4.236  12.500  0.0000  0.0000  0.0000
    1GRA      C 1649   3.545   4.236  12.500 -0.0000  0.0000  0.0000
    1GRA      C 1650   3.687   4.236  12.500  0.0000  0.0000  0.0000
    1GRA      C 1651   3.971   4.236  12.500 -0.0000  0.0000  0.0000
    1GRA      C 1652   4.112   4.236  12.500  0.0000  0.0000  0.0000
    1GRA      C 1653   4.396   4.236  12.500 -0.0000  0.0000  0.0000
    1GRA      C 1654   4.538   4.236  12.500  0.0000  0.0000  0.0000
    1GRA      C 1655   4.821   4.236  12.500  0.0000  0.0000 -0.0000
    1GRA      C 1656   4.963   4.236  12.500  0.0000  0.0000 -0.0000
    1GRA      C 1657   5.247   4.236  12.500 -0.0000  0.0000  0.0000
    1GRA      C 1658   5.389   4.236  12.500 -0.0000  0.0000  0.0000
    1GRA      C 1659   5.672   4.236  12.500 -0.0000  0.0000  0.0000
    1GRA      C 1660   5.814   4.236  12.500  0.0000  0.0000  0.0000
    1GRA      C 1661   6.098   4.236  12.500 -0.0000  0.0000  0.0000
    1GRA      C 1662   6.239   4.236  12.500  0.0000  0.0000  0.0000
    1GRA      C 1663   6.523   4.236  12.500 -0.0000  0.0000  0.0000
    1GRA      C 1664   6.665   4.236  12.500  0.0000  0.0000  0.0000
    1GRA      C 1665   6.948   4.236  12.500  0.0000  0.0000  0.0000
    1GRA      C 1666   7.090   4.236  12.500  0.0000  0.0000  0.0000
    1GRA      C 1667   7.374   4.236  12.500 -0.0000  0.0000  0.0000
    1GRA      C 1668   7.516   4.236  12.500  0.0000  0.0000  0.0000
    1GRA      C 1669   7.799   4.236  12.500 -0.0000  0.0000  0.0000
    1GRA      C 1670   7.941   4.236  12.500  0.0000  0.0000  0.0000
    1GRA      C 1671   8.225   4.236  12.500 -0.0000  0.0000  0.0000
    1GRA      C 1672   8.366   4.236  12.500  0.0000  0.0000  0.0000
    1GRA      C 1673   8.650   4.236  12.500 -0.0000  0.0000  0.0000
    1GRA      C 1674   8.792   4.236  12.500  0.0000  0.0000  0.0000
    1GRA      C 1675   9.075   4.236  12.500  0.0000  0.0000  0.0000
    1GRA      C 1676   9.217   4.236  12.500  0.0000  0.0000  0.0000
    1GRA      C 1677   9.501   4.236  12.500 -0.0000  0.0000  0.0000
    1GRA      C 1678   9.643   4.236  12.500  0.0000  0.0000  0.0000
    1GRA      C 1679   9.926   4.236  12.500 -0.0000  0.0000  0.0000
    1GRA      C 1680  10.068   4.236  12.500  0.0000  0.0000  0.0000
    1GRA      C 1681   0.071   4.359  12.500  0.0000 -0.0000  0.0000
    1GRA      C 1682   0.355   4.359  12.500 -0.0000 -0.0000  0.0000
    1GRA      C 1683   0.496   4.359  12.500  0.0000 -0.0000  0.0000
    1GRA      C 1684   0.780   4.359  12.500 -0.0000 -0.0000  0.0000
    1GRA      C 1685   0.922   4.359  12.500 -0.0000 -0.0000  0.0000
    1GRA      C 1686   1.205   4.359  12.500  0.0000 -0.0000  0.0000
    1GRA      C 1687   1.347   4.359  12.500  0.0000 -0.0000  0.0000
    1GRA      C 1688   1.631   4.359  12.500 -0.0000 -0.0000  0.0000
    1GRA      C 1689   1.773   4.359  12.500 -0.0000 -0.0000  0.0000
    1GRA      C 1690   2.056   4.359  12.500  0.0000 -0.0000  0.0000
    1GRA      C 1691   2.198   4.359  12.500  0.0000 -0.0000  0.0000
    1GRA      C 1692   2.482   4.359  12.500 -0.0000 -0.0000  0.0000
    1GRA      C 1693   2.624   4.359  12.500 -0.0000 -0.0000  0.0000
    1GRA      C 1694   2.907   4.359  12.500  0.0000 -0.0000  0.0000
    1GRA      C 1695   3.049   4.359  12.500  0.0000 -0.0000  0.0000
    1GRA      C 1696   3.333   4.359  12.500 -0.0000 -0.0000  0.0000
    1GRA      C 1697   3.474   4.359  12.500  0.0000 -0.0000  0.0000
    1GRA      C 1698   3.758   4.359  12.500 -0.0000 -0.0000  0.0000
    1GRA      C 1699   3.900   4.359  12.500 -0.0000 -0.0000  0.0000
    1GRA      C 1700   4.183   4.359  12.500  0.0000 -0.0000  0.0000
    1GRA      C 1701   4.325   4.359  12.500  0.0000 -0.0000  0.0000
    1GRA      C 1702   4.609   4.359  12.500 -0.0000 -0.0000  0.0000
    1GRA      C 1703   4.751   4.359  12.500 -0.0000 -0.0000  0.0000
    1GRA      C 1704   5.034   4.359  12.500  0.0000 -0.0000 -0.0000
    1GRA      C 1705   5.176   4.359  12.500 -0.0000 -0.0000 -0.0000
    1GRA      C 1706   5.459   4.359  12.500  0.0000 -0.0000  0.0000
    1GRA      C 1707   5.601   4.359  12.500  0.0000 -0.0000  0.0000
    1GRA      C 1708   5.885   4.359  12.500 -0.0000 -0.0000  0.0000
    1GRA      C 1709   6.027   4.359  12.500 -0.0000 -0.0000  0.0000
    1GRA      C 1710   6.310   4.359  12.500  0.0000 -0.0000  0.0000
    1GRA      C 1711   6.452   4.359  12.500  0.0000 -0.0000  0.0000
    1GRA      C 1712   6.736   4.359  12.500 -0.0000 -0.0000  0.0000
    1GRA      C 1713   6.878   4.359  12.500 -0.0000 -0.0000  0.0000
    1GRA      C 1714   7.161   4.359  12.500  0.0000 -0.0000  0.0000
    1GRA      C 1715   7.303   4.359  12.500  0.0000 -0.0000  0.0000
    1GRA      C 1716   7.587   4.359  12.500 -0.0000 -0.0000  0.0000
    1GRA      C 1717   7.728   4.359  12.500  0.0000 -0.0000  0.0000
    1GRA      C 1718   8.012   4.359  12.500 -0.0000 -0.0000  0.0000
    1GRA      C 1719   8.154   4.359  12.500 -0.0000 -0.0000  0.0000
    1GRA      C 1720   8.437   4.359  12.500  0.0000 -0.0000  0.0000
    1GRA      C 1721   8.579   4.359  12.500  0.0000 -0.0000  0.0000
    1GRA      C 1722   8.863   4.359  12.500 -0.0000 -0.0000  0.0000
    1GRA      C 1723   9.005   4.359  12.500 -0.0000 -0.0000  0.0000
    1GRA      C 1724   9.288   4.359  12.500  0.0000 -0.0000  0.0000
    1GRA      C 1725   9.430   4.359  12.500  0.0000 -0.0000  0.0000
    1GRA      C 1726   9.714   4.359  12.500 -0.0000 -0.0000  0.0000
    1GRA      C 1727   9.855   4.359  12.500  0.0000 -0.0000  0.0000
    1GRA      C 1728  10.139   4.359  12.500 -0.0000 -0.0000  0.0000
    1GRA      C 1729   0.142   4.482  12.500 -0.0000 -0.0000  0.0000
    1GRA      C 1730   0.284   4.482  12.500  0.0000 -0.0000  0.0000
    1GRA      C 1731   0.567   4.482  12.500 -0.0000 -0.0000  0.0000
    1GRA      C 1732   0.709   4.482  12.500  0.0000 -0.0000  0.0000
    1GRA      C 1733   0.993   4.482  12.500 -0.0000 -0.0000  0.0000
    1GRA      C 1734   1.135   4.482  12.500 -0.0000 -0.0000  0.0000
    1GRA      C 1735   1.418   4.482  12.500 -0.0000 -0.0000  0.0000
    1GRA      C 1736   1.560   4.482  12.500  0.0000 -0.0000  0.0000
    1GRA      C 1737   1.844   4.482  12.500 -0.0000 -0.0000  0.0000
    1GRA      C 1738   1.985   4.482  12.500  0.0000 -0.0000  0.0000
    1GRA      C 1739   2.269   4.482  12.500 -0.0000 -0.0000  0.0000
    1GRA      C 1740   2.411   4.482  12.500  0.0000 -0.0000  0.0000
    1GRA      C 1741   2.694   4.482  12.500  0.0000 -0.0000  0.0000
    1GRA      C 1742   2.836   4.482  12.500  0.0000 -0.0000  0.0000
    1GRA      C 1743   3.120   4.482  12.500 -0.0000 -0.0000  0.0000
    1GRA      C 1744   3.262   4.482  12.500  0.0000 -0.0000  0.0000
    1GRA      C 1745   3.545   4.482  12.500 -0.0000 -0.0000  0.0000
    1GRA      C 1746   3.687   4.482  12.500  0.0000 -0.0000  0.0000
    1GRA      C 1747   3.971   4.482  12.500 -0.0000 -0.0000  0.0000
    1GRA      C 1748   4.112   4.482  12.500  0.0000 -0.0000  0.0000
    1GRA      C 1749   4.396   4.482  12.500 -0.0000 -0.0000  0.0000
    1GRA      C 1750   4.538   4.482  12.500  0.0000 -0.0000  0.0000
    1GRA      C 1751   4.821   4.482  12.500  0.0000 -0.0000  0.0000
    1GRA      C 1752   4.963   4.482  12.500  0.0000 -0.0000 -0.0000
    1GRA      C 1753   5.247   4.482  12.500 -0.0000 -0.0000 -0.0000
    1GRA      C 1754   5.389   4.482  12.500 -0.0000 -0.0000  0.0000
    1GRA      C 1755   5.672   4.482  12.500 -0.0000 -0.0000  0.0000
    1GRA      C 1756   5.814   4.482  12.500  0.0000 -0.0000  0.0000
    1GRA      C 1757   6.098   4.482  12.500 -0.0000 -0.0000  0.0000
    1GRA      C 1758   6.239   4.482  12.500  0.0000 -0.0000  0.0000
    1GRA      C 1759   6.523   4.482  12.500 -0.0000 -0.0000  0.0000
    1GRA      C 1760   6.665   4.482  12.500  0.0000 -0.0000  0.0000
    1GRA      C 1761   6.948   4.482  12.500  0.0000 -0.0000  0.0000
    1GRA      C 1762   7.090   4.482  12.500  0.0000 -0.0000  0.0000
    1GRA      C 1763   7.374   4.482  12.500 -0.0000 -0.0000  0.0000
    1GRA      C 1764   7.516   4.482  12.500  0.0000 -0.0000  0.0000
    1GRA      C 1765   7.799   4.482  12.500 -0.0000 -0.0000  0.0000
    1GRA      C 1766   7.941   4.482  12.500  0.0000 -0.0000  0.0000
    1GRA      C 1767   8.225   4.482  12.500 -0.0000 -0.0000  0.0000
    1GRA      C 1768   8.366   4.482  12.500  0.0000 -0.0000  0.0000
    1GRA      C 1769   8.650   4.482  12.500 -0.0000 -0.0000  0.0000
    1GRA      C 1770   8.792   4.482  12.500  0.0000 -0.0000  0.0000
    1GRA      C 1771   9.075   4.482  12.500  0.0000 -0.0000  0.0000
    1GRA      C 1772   9.217   4.482  12.500  0.0000 -0.0000  0.0000
    1GRA      C 1773   9.501   4.482  12.500 -0.0000 -0.0000  0.0000
    1GRA      C 1774   9.643   4.482  12.500  0.0000 -0.0000  0.0000
    1GRA      C 1775   9.926   4.482  12.500 -0.0000 -0.0000  0.0000
    1GRA      C 1776  10.068   4.482  12.500  0.0000 -0.0000  0.0000
    1GRA      C 1777   0.071   4.605  12.500  0.0000  0.0000  0.0000
    1GRA      C 1778   0.355   4.605  12.500 -0.0000  0.0000  0.0000
    1GRA      C 1779   0.496   4.605  12.500  0.0000  0.0000  0.0000
    1GRA      C 1780   0.780   4.605  12.500 -0.0000  0.0000  0.0000
    1GRA      C 1781   0.922   4.605  12.500  0.0000  0.0000  0.0000
    1GRA      C 1782   1.205   4.605  12.500  0.0000  0.0000  0.0000
    1GRA      C 1783   1.347   4.605  12.500  0.0000  0.0000  0.0000
    1GRA      C 1784   1.631   4.605  12.500 -0.0000  0.0000  0.0000
    1GRA      C 1785   1.773   4.605  12.500  0.0000  0.0000  0.0000
    1GRA      C 1786   2.056   4.605  12.500 -0.0000  0.0000  0.0000
    1GRA      C 1787   2.198   4.605  12.500  0.0000  0.0000  0.0000
    1GRA      C 1788   2.482   4.605  12.500 -0.0000  0.0000  0.0000
    1GRA      C 1789   2.624   4.605  12.500 -0.0000  0.0000  0.0000
    1GRA      C 1790   2.907   4.605  12.500 -0.0000  0.0000  0.0000
    1GRA      C 1791   3.049   4.605  12.500  0.0000  0.0000  0.0000
    1GRA      C 1792   3.333   4.605  12.500 -0.0000  0.0000  0.0000
    1GRA      C 1793   3.474   4.605  12.500  0.0000  0.0000  0.0000
    1GRA      C 1794   3.758   4.605  12.500 -0.0000  0.0000  0.0000
    1GRA      C 1795   3.900   4.605  12.500  0.0000  0.0000  0.0000
    1GRA      C 1796   4.183   4.605  12.500 -0.0000  0.0000  0.0000
    1GRA      C 1797   4.325   4.605  12.500  0.0000  0.0000  0.0000
    1GRA      C 1798   4.609   4.605  12.500 -0.0000  0.0000  0.0000
    1GRA      C 1799   4.751   4.605  12.500 -0.0000  0.0000  0.0000
    1GRA      C 1800   5.034   4.605  12.500 -0.0000  0.0000 -0.0000
    1GRA      C 1801   5.176   4.605  12.500  0.0000  0.0000 -0.0000
    1GRA      C 1802   5.459   4.605  12.500  0.0000  0.0000 -0.0000
    1GRA      C 1803   5.601   4.605  12.500  0.0000  0.0000  0.0000
    1GRA      C 1804   5.885   4.605  12.500 -0.0000  0.0000  0.0000
    1GRA      C 1805   6.027   4.605  12.500  0.0000  0.0000  0.0000
    1GRA      C 1806   6.310   4.605  12.500 -0.0000  0.0000  0.0000
    1GRA      C 1807   6.452   4.605  12.500  0.0000  0.0000  0.0000
    1GRA      C 1808   6.736   4.605  12.500 -0.0000  0.0000  0.0000
    1GRA      C 1809   6.878   4.605  12.500 -0.0000  0.0000  0.0000
    1GRA      C 1810   7.161   4.605  12.500 -0.0000  0.0000  0.0000
    1GRA      C 1811   7.303   4.605  12.500  0.0000  0.0000  0.0000
    1GRA      C 1812   7.587   4.605  12.500 -0.0000  0.0000  0.0000
    1GRA      C 1813   7.728   4.605  12.500  0.0000  0.0000  0.0000
    1GRA      C 1814   8.012   4.605  12.500 -0.0000  0.0000  0.0000
    1GRA      C 1815   8.154   4.605  12.500  0.0000  0.0000  0.0000
    1GRA      C 1816   8.437   4.605  12.500 -0.0000  0.0000  0.0000
    1GRA      C 1817   8.579   4.605  12.500  0.0000  0.0000  0.0000
    1GRA      C 1818   8.863   4.605  12.500 -0.0000  0.0000  0.0000
    1GRA      C 1819   9.005   4.605  12.500 -0.0000  0.0000  0.0000
    1GRA      C 1820   9.288   4.605  12.500 -0.0000  0.0000  0.0000
    1GRA      C 1821   9.430   4.605  12.500  0.0000  0.0000  0.0000
    1GRA      C 1822   9.714   4.605  12.500 -0.0000  0.0000  0.0000
    1GRA      C 1823   9.855   4.605  12.500  0.0000  0.0000  0.0000
    1GRA      C 1824  10.139   4.605  12.500 -0.0000  0.0000  0.0000
    1GRA      C 1825   0.142   4.727  12.500 -0.0000 -0.0000  0.0000
    1GRA      C 1826   0.284   4.727  12.500  0.0000 -0.0000  0.0000
    1GRA      C 1827   0.567   4.727  12.500 -0.0000 -0.0000  0.0000
    1GRA      C 1828   0.709   4.727  12.500  0.0000 -0.0000  0.0000
    1GRA      C 1829   0.993   4.727  12.500 -0.0000 -0.0000  0.0000
    1GRA      C 1830   1.135   4.727  12.500 -0.0000 -0.0000  0.0000
    1GRA      C 1831   1.418   4.727  12.500 -0.0000 -0.0000  0.0000
    1GRA      C 1832   1.560   4.727  12.500  0.0000 -0.0000  0.0000
    1GRA      C 1833   1.844   4.727  12.500 -0.0000 -0.0000  0.0000
    1GRA      C 1834   1.985   4.727  12.500  0.0000 -0.0000  0.0000
    1GRA      C 1835   2.269   4.727  12.500 -0.0000 -0.0000  0.0000
    1GRA      C 1836   2.411   4.727  12.500  0.0000 -0.0000  0.0000
    1GRA      C 1837   2.694   4.727  12.500  0.0000 -0.0000  0.0000
    1GRA      C 1838   2.836   4.727  12.500  0.0000 -0.0000  0.0000
    1GRA      C 1839   3.120   4.727  12.500 -0.0000 -0.0000  0.0000
    1GRA      C 1840   3.262   4.727  12.500  0.0000 -0.0000  0.0000
    1GRA      C 1841   3.545   4.727  12.500 -0.0000 -0.0000  0.0000
    1GRA      C 1842   3.687   4.727  12.500  0.0000 -0.0000  0.0000
    1GRA      C 1843   3.971   4.727  12.500 -0.0000 -0.0000  0.0000
    1GRA      C 1844   4.112   4.727  12.500  0.0000 -0.0000  0.0000
    1GRA      C 1845   4.396   4.727  12.500 -0.0000 -0.0000  0.0000
    1GRA      C 1846   4.538   4.727  12.500  0.0000 -0.0000  0.0000
    1GRA      C 1847   4.821   4.727  12.500  0.0000 -0.0000  0.0000
    1GRA      C 1848   4.963   4.727  12.500  0.0000 -0.0000  0.0000
    1GRA      C 1849   5.247   4.727  12.500 -0.0000 -0.0000 -0.0000
    1GRA      C 1850   5.389   4.727  12.500 -0.0000 -0.0000 -0.0000
    1GRA      C 1851   5.672   4.727  12.500 -0.0000 -0.0000 -0.0000
    1GRA      C 1852   5.814   4.727  12.500  0.0000 -0.0000  0.0000
    1GRA      C 1853   6.098   4.727  12.500 -0.0000 -0.0000  0.0000
    1GRA      C 1854   6.239   4.727  12.500  0.0000 -0.0000  0.0000
    1GRA      C 1855   6.523   4.727  12.500 -0.0000 -0.0000  0.0000
    1GRA      C 1856   6.665   4.727  12.500  0.0000 -0.0000  0.0000
    1GRA      C 1857   6.948   4.727  12.500  0.0000 -0.0000  0.0000
    1GRA      C 1858   7.090   4.727  12.500  0.0000 -0.0000  0.0000
    1GRA      C 1859   7.374   4.727  12.500 -0.0000 -0.0000  0.0000
    1GRA      C 1860   7.516   4.727  12.500  0.0000 -0.0000  0.0000
    1GRA      C 1861   7.799   4.727  12.500 -0.0000 -0.0000  0.0000
    1GRA      C 1862   7.941   4.727  12.500  0.0000 -0.0000  0.0000
    1GRA      C 1863   8.225   4.727  12.500 -0.0000 -0.0000  0.0000
    1GRA      C 1864   8.366   4.727  12.500  0.0000 -0.0000  0.0000
    1GRA      C 1865   8.650   4.727  12.500 -0.0000 -0.0000  0.0000
    1GRA      C 1866   8.792   4.727  12.500  0.0000 -0.0000  0.0000
    1GRA      C 1867   9.075   4.727  12.500  0.0000 -0.0000  0.0000
    1GRA      C 1868   9.217   4.727  12.500  0.0000 -0.0000  0.0000
    1GRA      C 1869   9.501   4.727  12.500 -0.0000 -0.0000  0.0000
    1GRA      C 1870   9.643   4.727  12.500  0.0000 -0.0000  0.0000
    1GRA      C 1871   9.926   4.727  12.500 -0.0000 -0.0000  0.0000
    1GRA      C 1872  10.068   4.727  12.500  0.0000 -0.0000  0.0000
    1GRA      C 1873   0.071   4.850  12.500  0.0000  0.0000  0.0000
    1GRA      C 1874   0.355   4.850  12.500 -0.0000  0.0000  0.0000
    1GRA      C 1875   0.496   4.850  12.500  0.0000  0.0000  0.0000
    1GRA      C 1876   0.780   4.850  12.500 -0.0000  0.0000  0.0000
    1GRA      C 1877   0.922   4.850  12.500  0.0000  0.0000  0.0000
    1GRA      C 1878   1.205   4.850  12.500  0.0000  0.0000  0.0000
    1GRA      C 1879   1.347   4.850  12.500  0.0000  0.0000  0.0000
    1GRA      C 1880   1.631   4.850  12.500 -0.0000  0.0000  0.0000
    1GRA      C 1881   1.773   4.850  12.500  0.0000  0.0000  0.0000
    1GRA      C 1882   2.056   4.850  12.500 -0.0000  0.0000  0.0000
    1GRA      C 1883   2.198   4.850  12.500  0.0000  0.0000  0.0000
    1GRA      C 1884   2.482   4.850  12.500 -0.0000  0.0000  0.0000
    1GRA      C 1885   2.624   4.850  12.500 -0.0000  0.0000  0.0000
    1GRA      C 1886   2.907   4.850  12.500 -0.0000  0.0000  0.0000
    1GRA      C 1887   3.049   4.850  12.500  0.0000  0.0000  0.0000
    1GRA      C 1888   3.333   4.850  12.500 -0.0000  0.0000  0.0000
    1GRA      C 1889   3.474   4.850  12.500  0.0000  0.0000  0.0000
    1GRA      C 1890   3.758   4.850  12.500 -0.0000  0.0000  0.0000
    1GRA      C 1891   3.900   4.850  12.500  0.0000  0.0000  0.0000
    1GRA      C 1892   4.183   4.850  12.500 -0.0000  0.0000  0.0000
    1GRA      C 1893   4.325   4.850  12.500  0.0000  0.0000  0.0000
    1GRA      C 1894   4.609   4.850  12.500 -0.0000  0.0000  0.0000
    1GRA      C 1895   4.751   4.850  12.500 -0.0000  0.0000  0.0000
    1GRA      C 1896   5.034   4.850  12.500 -0.0000  0.0000  0.0000
    1GRA      C 1897   5.176   4.850  12.500  0.0000  0.0000  0.0000
    1GRA      C 1898   5.459   4.850  12.500  0.0000  0.0000 -0.0000
    1GRA      C 1899   5.601   4.850  12.500  0.0000  0.0000 -0.0000
    1GRA      C 1900   5.885   4.850  12.500 -0.0000  0.0000 -0.0000
    1GRA      C 1901   6.027   4.850  12.500  0.0000  0.0000  0.0000
    1GRA      C 1902   6.310   4.850  12.500 -0.0000  0.0000  0.0000
    1GRA      C 1903   6.452   4.850  12.500  0.0000  0.0000  0.0000
    1GRA      C 1904   6.736   4.850  12.500 -0.0000  0.0000  0.0000
    1GRA      C 1905   6.878   4.850  12.500 -0.0000  0.0000  0.0000
    1GRA      C 1906   7.161   4.850  12.500 -0.0000  0.0000  0.0000
    1GRA      C 1907   7.303   4.850  12.500  0.0000  0.0000  0.0000
    1GRA      C 1908   7.587   4.850  12.500 -0.0000  0.0000  0.0000
    1GRA      C 1909   7.728   4.850  12.500  0.0000  0.0000  0.0000
    1GRA      C 1910   8.012   4.850  12.500 -0.0000  0.0000  0.0000
    1GRA      C 1911   8.154   4.850  12.500  0.0000  0.0000  0.0000
    1GRA      C 1912   8.437   4.850  12.500 -0.0000  0.0000  0.0000
    1GRA      C 1913   8.579   4.850  12.500  0.0000  0.0000  0.0000
    1GRA      C 1914   8.863   4.850  12.500 -0.0000  0.0000  0.0000
    1GRA      C 1915   9.005   4.850  12.500 -0.0000  0.0000  0.0000
    1GRA      C 1916   9.288   4.850  12.500 -0.0000  0.0000  0.0000
    1GRA      C 1917   9.430   4.850  12.500  0.0000  0.0000  0.0000
    1GRA      C 1918   9.714   4.850  12.500 -0.0000  0.0000  0.0000
    1GRA      C 1919   9.855   4.850  12.500  0.0000  0.0000  0.0000
    1GRA      C 1920  10.139   4.850  12.500 -0.0000  0.0000  0.0000
    1GRA      C 1921   0.142   4.973  12.500  0.0000  0.0000  0.0000
    1GRA      C 1922   0.284   4.973  12.500 -0.0000  0.0000  0.0000
    1GRA      C 1923   0.567   4.973  12.500  0.0000  0.0000  0.0000
    1GRA      C 1924   0.709   4.973  12.500  0.0000  0.0000  0.0000
    1GRA      C 1925   0.993   4.973  12.500 -0.0000  0.0000  0.0000
    1GRA      C 1926   1.135   4.973  12.500 -0.0000  0.0000  0.0000
    1GRA      C 1927   1.418   4.973  12.500  0.0000 -0.0000  0.0000
    1GRA      C 1928   1.560   4.973  12.500  0.0000 -0.0000  0.0000
    1GRA      C 1929   1.844   4.973  12.500 -0.0000 -0.0000  0.0000
    1GRA      C 1930   1.985   4.973  12.500  0.0000 -0.0000  0.0000
    1GRA      C 1931   2.269   4.973  12.500 -0.0000 -0.0000  0.0000
    1GRA      C 1932   2.411   4.973  12.500 -0.0000 -0.0000  0.0000
    1GRA      C 1933   2.694   4.973  12.500  0.0000 -0.0000  0.0000
    1GRA      C 1934   2.836   4.973  12.500  0.0000  0.0000  0.0000
    1GRA      C 1935   3.120   4.973  12.500 -0.0000 -0.0000  0.0000
    1GRA      C 1936   3.262   4.973  12.500 -0.0000 -0.0000  0.0000
    1GRA      C 1937   3.545   4.973  12.500  0.0000 -0.0000  0.0000
    1GRA      C 1938   3.687   4.973  12.500  0.0000 -0.0000  0.0000
    1GRA      C 1939   3.971   4.973  12.500 -0.0000 -0.0000  0.0000
    1GRA      C 1940   4.112   4.973  12.500  0.0000 -0.0000  0.0000
    1GRA      C 1941   4.396   4.973  12.500 -0.0000 -0.0000  0.0000
    1GRA      C 1942   4.538   4.973  12.500 -0.0000 -0.0000  0.0000
    1GRA      C 1943   4.821   4.973  12.500  0.0000 -0.0000  0.0000
    1GRA      C 1944   4.963   4.973  12.500  0.0000 -0.0000  0.0000
    1GRA      C 1945   5.247   4.973  12.500 -0.0000 -0.0000  0.0000
    1GRA      C 1946   5.389   4.973  12.500 -0.0000 -0.0000  0.0000
    1GRA      C 1947   5.672   4.973  12.500  0.0000  0.0000 -0.0000
    1GRA      C 1948   5.814   4.973  12.500  0.0000 -0.0000 -0.0000
    1GRA      C 1949   6.098   4.973  12.500 -0.0000  0.0000  0.0000
    1GRA      C 1950   6.239   4.973  12.500  0.0000  0.0000  0.0000
    1GRA      C 1951   6.523   4.973  12.500 -0.0000  0.0000  0.0000
    1GRA      C 1952   6.665   4.973  12.500 -0.0000  0.0000  0.0000
    1GRA      C 1953   6.948   4.973  12.500  0.0000  0.0000  0.0000
    1GRA      C 1954   7.090   4.973  12.500  0.0000  0.0000  0.0000
    1GRA      C 1955   7.374   4.973  12.500 -0.0000  0.0000  0.0000
    1GRA      C 1956   7.516   4.973  12.500 -0.0000  0.0000  0.0000
    1GRA      C 1957   7.799   4.973  12.500  0.0000  0.0000  0.0000
    1GRA      C 1958   7.941   4.973  12.500  0.0000  0.0000  0.0000
    1GRA      C 1959   8.225   4.973  12.500 -0.0000 -0.0000  0.0000
    1GRA      C 1960   8.366   4.973  12.500  0.0000  0.0000  0.0000
    1GRA      C 1961   8.650   4.973  12.500 -0.0000 -0.0000  0.0000
    1GRA      C 1962   8.792   4.973  12.500 -0.0000  0.0000  0.0000
    1GRA      C 1963   9.075   4.973  12.500  0.0000  0.0000  0.0000
    1GRA      C 1964   9.217   4.973  12.500  0.0000  0.0000  0.0000
    1GRA      C 1965   9.501   4.973  12.500 -0.0000  0.0000  0.0000
    1GRA      C 1966   9.643   4.973  12.500 -0.0000  0.0000  0.0000
    1GRA      C 1967   9.926   4.973  12.500  0.0000  0.0000  0.0000
    1GRA      C 1968  10.068   4.973  12.500 -0.0000  0.0000  0.0000
    1GRA      C 1969   0.071   5.096  12.500  0.0000 -0.0000  0.0000
    1GRA      C 1970   0.355   5.096  12.500 -0.0000 -0.0000  0.0000
    1GRA      C 1971   0.496   5.096  12.500  0.0000 -0.0000  0.0000
    1GRA      C 1972   0.780   5.096  12.500 -0.0000 -0.0000  0.0000
    1GRA      C 1973   0.922   5.096  12.500  0.0000 -0.0000  0.0000
    1GRA      C 1974   1.205   5.096  12.500  0.0000 -0.0000  0.0000
    1GRA      C 1975   1.347   5.096  12.500  0.0000 -0.0000  0.0000
    1GRA      C 1976   1.631   5.096  12.500 -0.0000 -0.0000  0.0000
    1GRA      C 1977   1.773   5.096  12.500  0.0000 -0.0000  0.0000
    1GRA      C 1978   2.056   5.096  12.500 -0.0000 -0.0000  0.0000
    1GRA      C 1979   2.198   5.096  12.500  0.0000 -0.0000  0.0000
    1GRA      C 1980   2.482   5.096  12.500 -0.0000 -0.0000  0.0000
    1GRA      C 1981   2.624   5.096  12.500 -0.0000 -0.0000  0.0000
    1GRA      C 1982   2.907   5.096  12.500 -0.0000 -0.0000  0.0000
    1GRA      C 1983   3.049   5.096  12.500  0.0000 -0.0000  0.0000
    1GRA      C 1984   3.333   5.096  12.500 -0.0000 -0.0000  0.0000
    1GRA      C 1985   3.474   5.096  12.500  0.0000 -0.0000  0.0000
    1GRA      C 1986   3.758   5.096  12.500 -0.0000 -0.0000  0.0000
    1GRA      C 1987   3.900   5.096  12.500  0.0000 -0.0000  0.0000
    1GRA      C 1988   4.183   5.096  12.500 -0.0000 -0.0000  0.0000
    1GRA      C 1989   4.325   5.096  12.500  0.0000 -0.0000  0.0000
    1GRA      C 1990   4.609   5.096  12.500 -0.0000 -0.0000  0.0000
    1GRA      C 1991   4.751   5.096  12.500 -0.0000 -0.0000  0.0000
    1GRA      C 1992   5.034   5.096  12.500 -0.0000 -0.0000  0.0000
    1GRA      C 1993   5.176   5.096  12.500  0.0000 -0.0000  0.0000
    1GRA      C 1994   5.459   5.096  12.500  0.0000 -0.0000  0.0000
    1GRA      C 1995   5.601   5.096  12.500  0.0000 -0.0000  0.0000
    1GRA      C 1996   5.885   5.096  12.500 -0.0000 -0.0000 -0.0000
    1GRA      C 1997   6.027   5.096  12.500  0.0000 -0.0000 -0.0000
    1GRA      C 1998   6.310   5.096  12.500 -0.0000 -0.0000  0.0000
    1GRA      C 1999   6.452   5.096  12.500  0.0000 -0.0000  0.0000
    1GRA      C 2000   6.736   5.096  12.500 -0.0000 -0.0000  0.0000
    1GRA      C 2001   6.878   5.096  12.500 -0.0000 -0.0000  0.0000
    1GRA      C 2002   7.161   5.096  12.500 -0.0000 -0.0000  0.0000
    1GRA      C 2003   7.303   5.096  12.500  0.0000 -0.0000  0.0000
    1GRA      C 2004   7.587   5.096  12.500 -0.0000 -0.0000  0.0000
    1GRA      C 2005   7.728   5.096  12.500  0.0000 -0.0000  0.0000
    1GRA      C 2006   8.012   5.096  12.500 -0.0000 -0.0000  0.0000
    1GRA      C 2007   8.154   5.096  12.500  0.0000 -0.0000  0.0000
    1GRA      C 2008   8.437   5.096  12.500 -0.0000 -0.0000  0.0000
    1GRA      C 2009   8.579   5.096  12.500  0.0000 -0.0000  0.0000
    1GRA      C 2010   8.863   5.096  12.500 -0.0000 -0.0000  0.0000
    1GRA      C 2011   9.005   5.096  12.500 -0.0000 -0.0000  0.0000
    1GRA      C 2012   9.288   5.096  12.500 -0.0000 -0.0000  0.0000
    1GRA      C 2013   9.430   5.096  12.500  0.0000 -0.0000  0.0000
    1GRA      C 2014   9.714   5.096  12.500 -0.0000 -0.0000  0.0000
    1GRA      C 2015   9.855   5.096  12.500  0.0000 -0.0000  0.0000
    1GRA      C 2016  10.139   5.096  12.500 -0.0000 -0.0000  0.0000
    1GRA      C 2017   0.142   5.219  12.500 -0.0000  0.0000  0.0000
    1GRA      C 2018   0.284   5.219  12.500  0.0000  0.0000  0.0000
    1GRA      C 2019   0.567   5.219  12.500 -0.0000  0.0000  0.0000
    1GRA      C 2020   0.709   5.219  12.500  0.0000  0.0000  0.0000
    1GRA      C 2021   0.993   5.219  12.500 -0.0000  0.0000  0.0000
    1GRA      C 2022   1.135   5.219  12.500 -0.0000  0.0000  0.0000
    1GRA      C 2023   1.418   5.219  12.500 -0.0000  0.0000  0.0000
    1GRA      C 2024   1.560   5.219  12.500  0.0000  0.0000  0.0000
    1GRA      C 2025   1.844   5.219  12.500 -0.0000  0.0000  0.0000
    1GRA      C 2026   1.985   5.219  12.500  0.0000  0.0000  0.0000
    1GRA      C 2027   2.269   5.219  12.500 -0.0000  0.0000  0.0000
    1GRA      C 2028   2.411   5.219  12.500  0.0000  0.0000  0.0000
    1GRA      C 2029   2.694   5.219  12.500  0.0000  0.0000  0.0000
    1GRA      C 2030   2.836   5.219  12.500  0.0000  0.0000  0.0000
    1GRA      C 2031   3.120   5.219  12.500 -0.0000  0.0000  0.0000
    1GRA      C 2032   3.262   5.219  12.500  0.0000  0.0000  0.0000
    1GRA      C 2033   3.545   5.219  12.500 -0.0000  0.0000  0.0000
    1GRA      C 2034   3.687   5.219  12.500  0.0000  0.0000  0.0000
    1GRA      C 2035   3.971   5.219  12.500 -0.0000  0.0000  0.0000
    1GRA      C 2036   4.112   5.219  12.500  0.0000  0.0000  0.0000
    1GRA      C 2037   4.396   5.219  12.500 -0.0000  0.0000  0.0000
    1GRA      C 2038   4.538   5.219  12.500  0.0000  0.0000  0.0000
    1GRA      C 2039   4.821   5.219  12.500  0.0000  0.0000  0.0000
    1GRA      C 2040   4.963   5.219  12.500  0.0000  0.0000  0.0000
    1GRA      C 2041   5.247   5.219  12.500 -0.0000  0.0000  0.0000
    1GRA      C 2042   5.389   5.219  12.500 -0.0000  0.0000  0.0000
    1GRA      C 2043   5.672   5.219  12.500 -0.0000  0.0000  0.0000
    1GRA      C 2044   5.814   5.219  12.500  0.0000  0.0000 -0.0000
    1GRA      C 2045   6.098   5.219  12.500 -0.0000  0.0000 -0.0000
    1GRA      C 2046   6.239   5.219  12.500  0.0000  0.0000 -0.0000
    1GRA      C 2047   6.523   5.219  12.500 -0.0000  0.0000  0.0000
    1GRA      C 2048   6.665   5.219  12.500  0.0000  0.0000  0.0000
    1GRA      C 2049   6.948   5.219  12.500  0.0000  0.0000  0.0000
    1GRA      C 2050   7.090   5.219  12.500  0.0000  0.0000  0.0000
    1GRA      C 2051   7.374   5.219  12.500 -0.0000  0.0000  0.0000
    1GRA      C 2052   7.516   5.219  12.500  0.0000  0.0000  0.0000
    1GRA      C 2053   7.799   5.219  12.500 -0.0000  0.0000  0.0000
    1GRA      C 2054   7.941   5.219  12.500  0.0000  0.0000  0.0000
    1GRA      C 2055   8.225   5.219  12.500 -0.0000  0.0000  0.0000
    1GRA      C 2056   8.366   5.219  12.500  0.0000  0.0000  0.0000
    1GRA      C 2057   8.650   5.219  12.500 -0.0000  0.0000  0.0000
    1GRA      C 2058   8.792   5.219  12.500  0.0000  0.0000  0.0000
    1GRA      C 2059   9.075   5.219  12.500  0.0000  0.0000  0.0000
    1GRA      C 2060   9.217   5.219  12.500  0.0000  0.0000  0.0000
    1GRA      C 2061   9.501   5.219  12.500 -0.0000  0.0000  0.0000
    1GRA      C 2062   9.643   5.219  12.500  0.0000  0.0000  0.0000
    1GRA      C 2063   9.926   5.219  12.500 -0.0000  0.0000  0.0000
    1GRA      C 2064  10.068   5.219  12.500  0.0000  0.0000  0.0000
    1GRA      C 2065   0.071   5.341  12.500  0.0000 -0.0000  0.0000
    1GRA      C 2066   0.355   5.341  12.500 -0.0000 -0.0000  0.0000
    1GRA      C 2067   0.496   5.341  12.500  0.0000 -0.0000  0.0000
    1GRA      C 2068   0.780   5.341  12.500 -0.0000 -0.0000  0.0000
    1GRA      C 2069   0.922   5.341  12.500  0.0000 -0.0000  0.0000
    1GRA      C 2070   1.205   5.341  12.500  0.0000 -0.0000  0.0000
    1GRA      C 2071   1.347   5.341  12.500  0.0000 -0.0000  0.0000
    1GRA      C 2072   1.631   5.341  12.500 -0.0000 -0.0000  0.0000
    1GRA      C 2073   1.773   5.341  12.500  0.0000 -0.0000  0.0000
    1GRA      C 2074   2.056   5.341  12.500 -0.0000 -0.0000  0.0000
    1GRA      C 2075   2.198   5.341  12.500  0.0000 -0.0000  0.0000
    1GRA      C 2076   2.482   5.341  12.500 -0.0000 -0.0000  0.0000
    1GRA      C 2077   2.624   5.341  12.500 -0.0000 -0.0000  0.0000
    1GRA      C 2078   2.907   5.341  12.500 -0.0000 -0.0000  0.0000
    1GRA      C 2079   3.049   5.341  12.500  0.0000 -0.0000  0.0000
    1GRA      C 2080   3.333   5.341  12.500 -0.0000 -0.0000  0.0000
    1GRA      C 2081   3.474   5.341  12.500  0.0000 -0.0000  0.0000
    1GRA      C 2082   3.758   5.341  12.500 -0.0000 -0.0000  0.0000
    1GRA      C 2083   3.900   5.341  12.500  0.0000 -0.0000  0.0000
    1GRA      C 2084   4.183   5.341  12.500 -0.0000 -0.0000  0.0000
    1GRA      C 2085   4.325   5.341  12.500  0.0000 -0.0000  0.0000
    1GRA      C 2086   4.609   5.341  12.500 -0.0000 -0.0000  0.0000
    1GRA      C 2087   4.751   5.341  12.500 -0.0000 -0.0000  0.0000
    1GRA      C 2088   5.034   5.341  12.500 -0.0000 -0.0000  0.0000
    1GRA      C 2089   5.176   5.341  12.500  0.0000 -0.0000  0.0000
    1GRA      C 2090   5.459   5.341  12.500  0.0000 -0.0000  0.0000
    1GRA      C 2091   5.601   5.341  12.500  0.0000 -0.0000  0.0000
    1GRA      C 2092   5.885   5.341  12.500 -0.0000 -0.0000  0.0000
    1GRA      C 2093   6.027   5.341  12.500  0.0000 -0.0000 -0.0000
    1GRA      C 2094   6.310   5.341  12.500 -0.0000 -0.0000 -0.0000
    1GRA      C 2095   6.452   5.341  12.500  0.0000 -0.0000 -0.0000
    1GRA      C 2096   6.736   5.341  12.500 -0.0000 -0.0000  0.0000
    1GRA      C 2097   6.878   5.341  12.500 -0.0000 -0.0000  0.0000
    1GRA      C 2098   7.161   5.341  12.500 -0.0000 -0.0000  0.0000
    1GRA      C 2099   7.303   5.341  12.500  0.0000 -0.0000  0.0000
    1GRA      C 2100   7.587   5.341  12.500 -0.0000 -0.0000  0.0000
    1GRA      C 2101   7.728   5.341  12.500  0.0000 -0.0000  0.0000
    1GRA      C 2102   8.012   5.341  12.500 -0.0000 -0.0000  0.0000
    1GRA      C 2103   8.154   5.341  12.500  0.0000 -0.0000  0.0000
    1GRA      C 2104   8.437   5.341  12.500 -0.0000 -0.0000  0.0000
    1GRA      C 2105   8.579   5.341  12.500  0.0000 -0.0000  0.0000
    1GRA      C 2106   8.863   5.341  12.500 -0.0000 -0.0000  0.0000
    1GRA      C 2107   9.005   5.341  12.500 -0.0000 -0.0000  0.0000
    1GRA      C 2108   9.288   5.341  12.500 -0.0000 -0.0000  0.0000
    1GRA      C 2109   9.430   5.341  12.500  0.0000 -0.0000  0.0000
    1GRA      C 2110   9.714   5.341  12.500 -0.0000 -0.0000  0.0000
    1GRA      C 2111   9.855   5.341  12.500  0.0000 -0.0000  0.0000
    1GRA      C 2112  10.139   5.341  12.500 -0.0000 -0.0000  0.0000
    1GRA      C 2113   0.142   5.464  12.500 -0.0000  0.0000  0.0000
    1GRA      C 2114   0.284   5.464  12.500  0.0000  0.0000  0.0000
    1GRA      C 2115   0.567   5.464  12.500 -0.0000  0.0000  0.0000
    1GRA      C 2116   0.709   5.464  12.500  0.0000  0.0000  0.0000
    1GRA      C 2117   0.993   5.464  12.500 -0.0000  0.0000  0.0000
    1GRA      C 2118   1.135   5.464  12.500 -0.0000  0.0000  0.0000
    1GRA      C 2119   1.418   5.464  12.500 -0.0000  0.0000  0.0000
    1GRA      C 2120   1.560   5.464  12.500  0.0000  0.0000  0.0000
    1GRA      C 2121   1.844   5.464  12.500 -0.0000  0.0000  0.0000
    1GRA      C 2122   1.985   5.464  12.500  0.0000  0.0000  0.0000
    1GRA      C 2123   2.269   5.464  12.500 -0.0000  0.0000  0.0000
    1GRA      C 2124   2.411   5.464  12.500  0.0000  0.0000  0.0000
    1GRA      C 2125   2.694   5.464  12.500  0.0000  0.0000  0.0000
    1GRA      C 2126   2.836   5.464  12.500  0.0000  0.0000  0.0000
    1GRA      C 2127   3.120   5.464  12.500 -0.0000  0.0000  0.0000
    1GRA      C 2128   3.262   5.464  12.500  0.0000  0.0000  0.0000
    1GRA      C 2129   3.545   5.464  12.500 -0.0000  0.0000  0.0000
    1GRA      C 2130   3.687   5.464  12.500  0.0000  0.0000  0.0000
    1GRA      C 2131   3.971   5.464  12.500 -0.0000  0.0000  0.0000
    1GRA      C 2132   4.112   5.464  12.500  0.0000  0.0000  0.0000
    1GRA      C 2133   4.396   5.464  12.500 -0.0000  0.0000  0.0000
    1GRA      C 2134   4.538   5.464  12.500  0.0000  0.0000  0.0000
    1GRA      C 2135   4.821   5.464  12.500  0.0000  0.0000  0.0000
    1GRA      C 2136   4.963   5.464  12.500  0.0000  0.0000  0.0000
    1GRA      C 2137   5.247   5.464  12.500 -0.0000  0.0000  0.0000
    1GRA      C 2138   5.389   5.464  12.500 -0.0000  0.0000  0.0000
    1GRA      C 2139   5.672   5.464  12.500 -0.0000  0.0000  0.0000
    1GRA      C 2140   5.814   5.464  12.500  0.0000  0.0000  0.0000
    1GRA      C 2141   6.098   5.464  12.500 -0.0000  0.0000 -0.0000
    1GRA      C 2142   6.239   5.464  12.500  0.0000  0.0000 -0.0000
    1GRA      C 2143   6.523   5.464  12.500 -0.0000  0.0000 -0.0000
    1GRA      C 2144   6.665   5.464  12.500  0.0000  0.0000 -0.0000
    1GRA      C 2145   6.948   5.464  12.500  0.0000  0.0000  0.0000
    1GRA      C 2146   7.090   5.464  12.500  0.0000  0.0000  0.0000
    1GRA      C 2147   7.374   5.464  12.500 -0.0000  0.0000  0.0000
    1GRA      C 2148   7.516   5.464  12.500  0.0000  0.0000  0.0000
    1GRA      C 2149   7.799   5.464  12.500 -0.0000  0.0000  0.0000
    1GRA      C 2150   7.941   5.464  12.500  0.0000  0.0000  0.0000
    1GRA      C 2151   8.225   5.464  12.500 -0.0000  0.0000  0.0000
    1GRA      C 2152   8.366   5.464  12.500  0.0000  0.0000  0.0000
    1GRA      C 2153   8.650   5.464  12.500 -0.0000  0.0000  0.0000
    1GRA      C 2154   8.792   5.464  12.500  0.0000  0.0000  0.0000
    1GRA      C 2155   9.075   5.464  12.500  0.0000  0.0000  0.0000
    1GRA      C 2156   9.217   5.464  12.500  0.0000  0.0000  0.0000
    1GRA      C 2157   9.501   5.464  12.500 -0.0000  0.0000  0.0000
    1GRA      C 2158   9.643   5.464  12.500  0.0000  0.0000  0.0000
    1GRA      C 2159   9.926   5.464  12.500 -0.0000  0.0000  0.0000
    1GRA      C 2160  10.068   5.464  12.500  0.0000  0.0000  0.0000
    1GRA      C 2161   0.071   5.587  12.500  0.0000  0.0000  0.0000
    1GRA      C 2162   0.355   5.587  12.500 -0.0000  0.0000  0.0000
    1GRA      C 2163   0.496   5.587  12.500  0.0000  0.0000  0.0000
    1GRA      C 2164   0.780   5.587  12.500 -0.0000  0.0000  0.0000
    1GRA      C 2165   0.922   5.587  12.500 -0.0000  0.0000  0.0000
    1GRA      C 2166   1.205   5.587  12.500  0.0000  0.0000  0.0000
    1GRA      C 2167   1.347   5.587  12.500  0.0000  0.0000  0.0000
    1GRA      C 2168   1.631   5.587  12.500 -0.0000  0.0000  0.0000
    1GRA      C 2169   1.773   5.587  12.500 -0.0000  0.0000  0.0000
    1GRA      C 2170   2.056   5.587  12.500  0.0000  0.0000  0.0000
    1GRA      C 2171   2.198   5.587  12.500  0.0000  0.0000  0.0000
    1GRA      C 2172   2.482   5.587  12.500 -0.0000  0.0000  0.0000
    1GRA      C 2173   2.624   5.587  12.500 -0.0000  0.0000  0.0000
    1GRA      C 2174   2.907   5.587  12.500  0.0000  0.0000  0.0000
    1GRA      C 2175   3.049   5.587  12.500  0.0000  0.0000  0.0000
    1GRA      C 2176   3.333   5.587  12.500 -0.0000  0.0000  0.0000
    1GRA      C 2177   3.474   5.587  12.500  0.0000  0.0000  0.0000
    1GRA      C 2178   3.758   5.587  12.500 -0.0000  0.0000  0.0000
    1GRA      C 2179   3.900   5.587  12.500 -0.0000  0.0000  0.0000
    1GRA      C 2180   4.183   5.587  12.500  0.0000  0.0000  0.0000
    1GRA      C 2181   4.325   5.587  12.500  0.0000  0.0000  0.0000
    1GRA      C 2182   4.609   5.587  12.500 -0.0000  0.0000  0.0000
    1GRA      C 2183   4.751   5.587  12.500 -0.0000  0.0000  0.0000
    1GRA      C 2184   5.034   5.587  12.500  0.0000  0.0000  0.0000
    1GRA      C 2185   5.176   5.587  12.500 -0.0000  0.0000  0.0000
    1GRA      C 2186   5.459   5.587  12.500  0.0000  0.0000  0.0000
    1GRA      C 2187   5.601   5.587  12.500  0.0000  0.0000  0.0000
    1GRA      C 2188   5.885   5.587  12.500 -0.0000  0.0000  0.0000
    1GRA      C 2189   6.027   5.587  12.500 -0.0000  0.0000  0.0000
    1GRA      C 2190   6.310   5.587  12.500  0.0000  0.0000 -0.0000
    1GRA      C 2191   6.452   5.587  12.500  0.0000  0.0000 -0.0000
    1GRA      C 2192   6.736   5.587  12.500 -0.0000  0.0000 -0.0000
    1GRA      C 2193   6.878   5.587  12.500 -0.0000  0.0000  0.0000
    1GRA      C 2194   7.161   5.587  12.500  0.0000  0.0000  0.0000
    1GRA      C 2195   7.303   5.587  12.500  0.0000  0.0000  0.0000
    1GRA      C 2196   7.587   5.587  12.500 -0.0000  0.0000  0.0000
    1GRA      C 2197   7.728   5.587  12.500  0.0000  0.0000  0.0000
    1GRA      C 2198   8.012   5.587  12.500 -0.0000  0.0000  0.0000
    1GRA      C 2199   8.154   5.587  12.500 -0.0000  0.0000  0.0000
    1GRA      C 2200   8.437   5.587  12.500  0.0000  0.0000  0.0000
    1GRA      C 2201   8.579   5.587  12.500  0.0000  0.0000  0.0000
    1GRA      C 2202   8.863   5.587  12.500 -0.0000  0.0000  0.0000
    1GRA      C 2203   9.005   5.587  12.500 -0.0000  0.0000  0.0000
    1GRA      C 2204   9.288   5.587  12.500  0.0000  0.0000  0.0000
    1GRA      C 2205   9.430   5.587  12.500  0.0000  0.0000  0.0000
    1GRA      C 2206   9.714   5.587  12.500 -0.0000  0.0000  0.0000
    1GRA      C 2207   9.855   5.587  12.500  0.0000  0.0000  0.0000
    1GRA      C 2208  10.139   5.587  12.500 -0.0000  0.0000  0.0000
    1GRA      C 2209   0.142   5.710  12.500 -0.0000 -0.0000  0.0000
    1GRA      C 2210   0.284   5.710  12.500  0.0000 -0.0000  0.0000
    1GRA      C 2211   0.567   5.710  12.500 -0.0000 -0.0000  0.0000
    1GRA      C 2212   0.709   5.710  12.500  0.0000 -0.0000  0.0000
    1GRA      C 2213   0.993   5.710  12.500 -0.0000 -0.0000  0.0000
    1GRA      C 2214   1.135   5.710  12.500 -0.0000 -0.0000  0.0000
    1GRA      C 2215   1.418   5.710  12.500 -0.0000 -0.0000  0.0000
    1GRA      C 2216   1.560   5.710  12.500  0.0000 -0.0000  0.0000
    1GRA      C 2217   1.844   5.710  12.500 -0.0000 -0.0000  0.0000
    1GRA      C 2218   1.985   5.710  12.500  0.0000 -0.0000  0.0000
    1GRA      C 2219   2.269   5.710  12.500 -0.0000 -0.0000  0.0000
    1GRA      C 2220   2.411   5.710  12.500  0.0000 -0.0000  0.0000
    1GRA      C 2221   2.694   5.710  12.500  0.0000 -0.0000  0.0000
    1GRA      C 2222   2.836   5.710  12.500  0.0000 -0.0000  0.0000
    1GRA      C 2223   3.120   5.710  12.500 -0.0000 -0.0000  0.0000
    1GRA      C 2224   3.262   5.710  12.500  0.0000 -0.0000  0.0000
    1GRA      C 2225   3.545   5.710  12.500 -0.0000 -0.0000  0.0000
    1GRA      C 2226   3.687   5.710  12.500  0.0000 -0.0000  0.0000
    1GRA      C 2227   3.971   5.710  12.500 -0.0000 -0.0000  0.0000
    1GRA      C 2228   4.112   5.710  12.500  0.0000 -0.0000  0.0000
    1GRA      C 2229   4.396   5.710  12.500 -0.0000 -0.0000  0.0000
    1GRA      C 2230   4.538   5.710  12.500  0.0000 -0.0000  0.0000
    1GRA      C 2231   4.821   5.710  12.500  0.0000 -0.0000  0.0000
    1GRA      C 2232   4.963   5.710  12.500  0.0000 -0.0000  0.0000
    1GRA      C 2233   5.247   5.710  12.500 -0.0000 -0.0000  0.0000
    1GRA      C 2234   5.389   5.710  12.500 -0.0000 -0.0000  0.0000
    1GRA      C 2235   5.672   5.710  12.500 -0.0000 -0.0000  0.0000
    1GRA      C 2236   5.814   5.710  12.500  0.0000 -0.0000  0.0000
    1GRA      C 2237   6.098   5.710  12.500 -0.0000 -0.0000  0.0000
    1GRA      C 2238   6.239   5.710  12.500  0.0000 -0.0000  0.0000
    1GRA      C 2239   6.523   5.710  12.500 -0.0000 -0.0000 -0.0000
    1GRA      C 2240   6.665   5.710  12.500  0.0000 -0.0000 -0.0000
    1GRA      C 2241   6.948   5.710  12.500  0.0000 -0.0000  0.0000
    1GRA      C 2242   7.090   5.710  12.500  0.0000 -0.0000  0.0000
    1GRA      C 2243   7.374   5.710  12.500 -0.0000 -0.0000  0.0000
    1GRA      C 2244   7.516   5.710  12.500  0.0000 -0.0000  0.0000
    1GRA      C 2245   7.799   5.710  12.500 -0.0000 -0.0000  0.0000
    1GRA      C 2246   7.941   5.710  12.500  0.0000 -0.0000  0.0000
    1GRA      C 2247   8.225   5.710  12.500 -0.0000 -0.0000  0.0000
    1GRA      C 2248   8.366   5.710  12.500  0.0000 -0.0000  0.0000
    1GRA      C 2249   8.650   5.710  12.500 -0.0000 -0.0000  0.0000
    1GRA      C 2250   8.792   5.710  12.500  0.0000 -0.0000  0.0000
    1GRA      C 2251   9.075   5.710  12.500  0.0000 -0.0000  0.0000
    1GRA      C 2252   9.217   5.710  12.500  0.0000 -0.0000  0.0000
    1GRA      C 2253   9.501   5.710  12.500 -0.0000 -0.0000  0.0000
    1GRA      C 2254   9.643   5.710  12.500  0.0000 -0.0000  0.0000
    1GRA      C 2255   9.926   5.710  12.500 -0.0000 -0.0000  0.0000
    1GRA      C 2256  10.068   5.710  12.500  0.0000 -0.0000  0.0000
    1GRA      C 2257   0.071   5.833  12.500  0.0000  0.0000  0.0000
    1GRA      C 2258   0.355   5.833  12.500 -0.0000  0.0000  0.0000
    1GRA      C 2259   0.496   5.833  12.500  0.0000  0.0000  0.0000
    1GRA      C 2260   0.780   5.833  12.500 -0.0000  0.0000  0.0000
    1GRA      C 2261   0.922   5.833  12.500  0.0000  0.0000  0.0000
    1GRA      C 2262   1.205   5.833  12.500  0.0000  0.0000  0.0000
    1GRA      C 2263   1.347   5.833  12.500  0.0000  0.0000  0.0000
    1GRA      C 2264   1.631   5.833  12.500 -0.0000  0.0000  0.0000
    1GRA      C 2265   1.773   5.833  12.500  0.0000  0.0000  0.0000
    1GRA      C 2266   2.056   5.833  12.500 -0.0000  0.0000  0.0000
    1GRA      C 2267   2.198   5.833  12.500  0.0000  0.0000  0.0000
    1GRA      C 2268   2.482   5.833  12.500 -0.0000  0.0000  0.0000
    1GRA      C 2269   2.624   5.833  12.500 -0.0000  0.0000  0.0000
    1GRA      C 2270   2.907   5.833  12.500 -0.0000  0.0000  0.0000
    1GRA      C 2271   3.049   5.833  12.500  0.0000  0.0000  0.0000
    1GRA      C 2272   3.333   5.833  12.500 -0.0000  0.0000  0.0000
    1GRA      C 2273   3.474   5.833  12.500  0.0000  0.0000  0.0000
    1GRA      C 2274   3.758   5.833  12.500 -0.0000  0.0000  0.0000
    1GRA      C 2275   3.900   5.833  12.500  0.0000  0.0000  0.0000
    1GRA      C 2276   4.183   5.833  12.500 -0.0000  0.0000  0.0000
    1GRA      C 2277   4.325   5.833  12.500  0.0000  0.0000  0.0000
    1GRA      C 2278   4.609   5.833  12.500 -0.0000  0.0000  0.0000
    1GRA      C 2279   4.751   5.833  12.500 -0.0000  0.0000  0.0000
    1GRA      C 2280   5.034   5.833  12.500 -0.0000  0.0000  0.0000
    1GRA      C 2281   5.176   5.833  12.500  0.0000  0.0000  0.0000
    1GRA      C 2282   5.459   5.833  12.500  0.0000  0.0000  0.0000
    1GRA      C 2283   5.601   5.833  12.500  0.0000  0.0000  0.0000
    1GRA      C 2284   5.885   5.833  12.500 -0.0000  0.0000  0.0000
    1GRA      C 2285   6.027   5.833  12.500  0.0000  0.0000  0.0000
    1GRA      C 2286   6.310   5.833  12.500 -0.0000  0.0000  0.0000
    1GRA      C 2287   6.452   5.833  12.500  0.0000  0.0000  0.0000
    1GRA      C 2288   6.736   5.833  12.500 -0.0000  0.0000 -0.0000
    1GRA      C 2289   6.878   5.833  12.500 -0.0000  0.0000 -0.0000
    1GRA      C 2290   7.161   5.833  12.500 -0.0000  0.0000  0.0000
    1GRA      C 2291   7.303   5.833  12.500  0.0000  0.0000  0.0000
    1GRA      C 2292   7.587   5.833  12.500 -0.0000  0.0000  0.0000
    1GRA      C 2293   7.728   5.833  12.500  0.0000  0.0000  0.0000
    1GRA      C 2294   8.012   5.833  12.500 -0.0000  0.0000  0.0000
    1GRA      C 2295   8.154   5.833  12.500  0.0000  0.0000  0.0000
    1GRA      C 2296   8.437   5.833  12.500 -0.0000  0.0000  0.0000
    1GRA      C 2297   8.579   5.833  12.500  0.0000  0.0000  0.0000
    1GRA      C 2298   8.863   5.833  12.500 -0.0000  0.0000  0.0000
    1GRA      C 2299   9.005   5.833  12.500 -0.0000  0.0000  0.0000
    1GRA      C 2300   9.288   5.833  12.500 -0.0000  0.0000  0.0000
    1GRA      C 2301   9.430   5.833  12.500  0.0000  0.0000  0.0000
    1GRA      C 2302   9.714   5.833  12.500 -0.0000  0.0000  0.0000
    1GRA      C 2303   9.855   5.833  12.500  0.0000  0.0000  0.0000
    1GRA      C 2304  10.139   5.833  12.500 -0.0000  0.0000  0.0000
    1GRA      C 2305   0.142   5.955  12.500 -0.0000 -0.0000  0.0000
    1GRA      C 2306   0.284   5.955  12.500  0.0000 -0.0000  0.0000
    1GRA      C 2307   0.567   5.955  12.500 -0.0000 -0.0000  0.0000
    1GRA      C 2308   0.709   5.955  12.500  0.0000 -0.0000  0.0000
    1GRA      C 2309   0.993   5.955  12.500 -0.0000 -0.0000  0.0000
    1GRA      C 2310   1.135   5.955  12.500 -0.0000 -0.0000  0.0000
    1GRA      C 2311   1.418   5.955  12.500 -0.0000 -0.0000  0.0000
    1GRA      C 2312   1.560   5.955  12.500  0.0000 -0.0000  0.0000
    1GRA      C 2313   1.844   5.955  12.500 -0.0000 -0.0000  0.0000
    1GRA      C 2314   1.985   5.955  12.500  0.0000 -0.0000  0.0000
    1GRA      C 2315   2.269   5.955  12.500 -0.0000 -0.0000  0.0000
    1GRA      C 2316   2.411   5.955  12.500  0.0000 -0.0000  0.0000
    1GRA      C 2317   2.694   5.955  12.500  0.0000 -0.0000  0.0000
    1GRA      C 2318   2.836   5.955  12.500  0.0000 -0.0000  0.0000
    1GRA      C 2319   3.120   5.955  12.500 -0.0000 -0.0000  0.0000
    1GRA      C 2320   3.262   5.955  12.500  0.0000 -0.0000  0.0000
    1GRA      C 2321   3.545   5.955  12.500 -0.0000 -0.0000  0.0000
    1GRA      C 2322   3.687   5.955  12.500  0.0000 -0.0000  0.0000
    1GRA      C 2323   3.971   5.955  12.500 -0.0000 -0.0000  0.0000
    1GRA      C 2324   4.112   5.955  12.500  0.0000 -0.0000  0.0000
    1GRA      C 2325   4.396   5.955  12.500 -0.0000 -0.0000  0.0000
    1GRA      C 2326   4.538   5.955  12.500  0.0000 -0.0000  0.0000
    1GRA      C 2327   4.821   5.955  12.500  0.0000 -0.0000  0.0000
    1GRA      C 2328   4.963   5.955  12.500  0.0000 -0.0000  0.0000
    1GRA      C 2329   5.247   5.955  12.500 -0.0000 -0.0000  0.0000
    1GRA      C 2330   5.389   5.955  12.500 -0.0000 -0.0000  0.0000
    1GRA      C 2331   5.672   5.955  12.500 -0.0000 -0.0000  0.0000
    1GRA      C 2332   5.814   5.955  12.500  0.0000 -0.0000  0.0000
    1GRA      C 2333   6.098   5.955  12.500 -0.0000 -0.0000  0.0000
    1GRA      C 2334   6.239   5.955  12.500  0.0000 -0.0000  0.0000
    1GRA      C 2335   6.523   5.955  12.500 -0.0000 -0.0000  0.0000
    1GRA      C 2336   6.665   5.955  12.500  0.0000 -0.0000 -0.0000
    1GRA      C 2337   6.948   5.955  12.500  0.0000 -0.0000 -0.0000
    1GRA      C 2338   7.090   5.955  12.500  0.0000 -0.0000  0.0000
    1GRA      C 2339   7.374   5.955  12.500 -0.0000 -0.0000  0.0000
    1GRA      C 2340   7.516   5.955  12.500  0.0000 -0.0000  0.0000
    1GRA      C 2341   7.799   5.955  12.500 -0.0000 -0.0000  0.0000
    1GRA      C 2342   7.941   5.955  12.500  0.0000 -0.0000  0.0000
    1GRA      C 2343   8.225   5.955  12.500 -0.0000 -0.0000  0.0000
    1GRA      C 2344   8.366   5.955  12.500  0.0000 -0.0000  0.0000
    1GRA      C 2345   8.650   5.955  12.500 -0.0000 -0.0000  0.0000
    1GRA      C 2346   8.792   5.955  12.500  0.0000 -0.0000  0.0000
    1GRA      C 2347   9.075   5.955  12.500  0.0000 -0.0000  0.0000
    1GRA      C 2348   9.217   5.955  12.500  0.0000 -0.0000  0.0000
    1GRA      C 2349   9.501   5.955  12.500 -0.0000 -0.0000  0.0000
    1GRA      C 2350   9.643   5.955  12.500  0.0000 -0.0000  0.0000
    1GRA      C 2351   9.926   5.955  12.500 -0.0000 -0.0000  0.0000
    1GRA      C 2352  10.068   5.955  12.500  0.0000 -0.0000  0.0000
    1GRA      C 2353   0.071   6.078  12.500  0.0000  0.0000  0.0000
    1GRA      C 2354   0.355   6.078  12.500 -0.0000  0.0000  0.0000
    1GRA      C 2355   0.496   6.078  12.500  0.0000  0.0000  0.0000
    1GRA      C 2356   0.780   6.078  12.500 -0.0000  0.0000  0.0000
    1GRA      C 2357   0.922   6.078  12.500  0.0000  0.0000  0.0000
    1GRA      C 2358   1.205   6.078  12.500  0.0000  0.0000  0.0000
    1GRA      C 2359   1.347   6.078  12.500  0.0000  0.0000  0.0000
    1GRA      C 2360   1.631   6.078  12.500 -0.0000  0.0000  0.0000
    1GRA      C 2361   1.773   6.078  12.500  0.0000  0.0000  0.0000
    1GRA      C 2362   2.056   6.078  12.500 -0.0000  0.0000  0.0000
    1GRA      C 2363   2.198   6.078  12.500  0.0000  0.0000  0.0000
    1GRA      C 2364   2.482   6.078  12.500 -0.0000  0.0000  0.0000
    1GRA      C 2365   2.624   6.078  12.500 -0.0000  0.0000  0.0000
    1GRA      C 2366   2.907   6.078  12.500 -0.0000  0.0000  0.0000
    1GRA      C 2367   3.049   6.078  12.500  0.0000  0.0000  0.0000
    1GRA      C 2368   3.333   6.078  12.500 -0.0000  0.0000  0.0000
    1GRA      C 2369   3.474   6.078  12.500  0.0000  0.0000  0.0000
    1GRA      C 2370   3.758   6.078  12.500 -0.0000  0.0000  0.0000
    1GRA      C 2371   3.900   6.078  12.500  0.0000  0.0000  0.0000
    1GRA      C 2372   4.183   6.078  12.500 -0.0000  0.0000  0.0000
    1GRA      C 2373   4.325   6.078  12.500  0.0000  0.0000  0.0000
    1GRA      C 2374   4.609   6.078  12.500 -0.0000  0.0000  0.0000
    1GRA      C 2375   4.751   6.078  12.500 -0.0000  0.0000  0.0000
    1GRA      C 2376   5.034   6.078  12.500 -0.0000  0.0000  0.0000
    1GRA      C 2377   5.176   6.078  12.500  0.0000  0.0000  0.0000
    1GRA      C 2378   5.459   6.078  12.500  0.0000  0.0000  0.0000
    1GRA      C 2379   5.601   6.078  12.500  0.0000  0.0000  0.0000
    1GRA      C 2380   5.885   6.078  12.500 -0.0000  0.0000  0.0000
    1GRA      C 2381   6.027   6.078  12.500  0.0000  0.0000  0.0000
    1GRA      C 2382   6.310   6.078  12.500 -0.0000  0.0000  0.0000
    1GRA      C 2383   6.452   6.078  12.500  0.0000  0.0000  0.0000
    1GRA      C 2384   6.736   6.078  12.500 -0.0000  0.0000 -0.0000
    1GRA      C 2385   6.878   6.078  12.500 -0.0000  0.0000 -0.0000
    1GRA      C 2386   7.161   6.078  12.500 -0.0000  0.0000 -0.0000
    1GRA      C 2387   7.303   6.078  12.500  0.0000  0.0000  0.0000
    1GRA      C 2388   7.587   6.078  12.500 -0.0000  0.0000  0.0000
    1GRA      C 2389   7.728   6.078  12.500  0.0000  0.0000  0.0000
    1GRA      C 2390   8.012   6.078  12.500 -0.0000  0.0000  0.0000
    1GRA      C 2391   8.154   6.078  12.500  0.0000  0.0000  0.0000
    1GRA      C 2392   8.437   6.078  12.500 -0.0000  0.0000  0.0000
    1GRA      C 2393   8.579   6.078  12.500  0.0000  0.0000  0.0000
    1GRA      C 2394   8.863   6.078  12.500 -0.0000  0.0000  0.0000
    1GRA      C 2395   9.005   6.078  12.500 -0.0000  0.0000  0.0000
    1GRA      C 2396   9.288   6.078  12.500 -0.0000  0.0000  0.0000
    1GRA      C 2397   9.430   6.078  12.500  0.0000  0.0000  0.0000
    1GRA      C 2398   9.714   6.078  12.500 -0.0000  0.0000  0.0000
    1GRA      C 2399   9.855   6.078  12.500  0.0000  0.0000 -0.0000
    1GRA      C 2400  10.139   6.078  12.500 -0.0000  0.0000  0.0000
    1GRA      C 2401   0.142   6.201  12.500 -0.0000  0.0000  0.0000
    1GRA      C 2402   0.284   6.201  12.500 -0.0000  0.0000  0.0000
    1GRA      C 2403   0.567   6.201  12.500  0.0000  0.0000  0.0000
    1GRA      C 2404   0.709   6.201  12.500  0.0000  0.0000  0.0000
    1GRA      C 2405   0.993   6.201  12.500 -0.0000  0.0000  0.0000
    1GRA      C 2406   1.135   6.201  12.500 -0.0000  0.0000  0.0000
    1GRA      C 2407   1.418   6.201  12.500  0.0000  0.0000  0.0000
    1GRA      C 2408   1.560   6.201  12.500  0.0000  0.0000  0.0000
    1GRA      C 2409   1.844   6.201  12.500 -0.0000 -0.0000  0.0000
    1GRA      C 2410   1.985   6.201  12.500  0.0000 -0.0000  0.0000
    1GRA      C 2411   2.269   6.201  12.500 -0.0000 -0.0000  0.0000
    1GRA      C 2412   2.411   6.201  12.500 -0.0000 -0.0000  0.0000
    1GRA      C 2413   2.694   6.201  12.500  0.0000 -0.0000  0.0000
    1GRA      C 2414   2.836   6.201  12.500  0.0000 -0.0000  0.0000
    1GRA      C 2415   3.120   6.201  12.500 -0.0000 -0.0000  0.0000
    1GRA      C 2416   3.262   6.201  12.500 -0.0000 -0.0000  0.0000
    1GRA      C 2417   3.545   6.201  12.500  0.0000 -0.0000  0.0000
    1GRA      C 2418   3.687   6.201  12.500  0.0000 -0.0000  0.0000
    1GRA      C 2419   3.971   6.201  12.500 -0.0000 -0.0000  0.0000
    1GRA      C 2420   4.112   6.201  12.500  0.0000 -0.0000  0.0000
    1GRA      C 2421   4.396   6.201  12.500 -0.0000 -0.0000  0.0000
    1GRA      C 2422   4.538   6.201  12.500 -0.0000 -0.0000  0.0000
    1GRA      C 2423   4.821   6.201  12.500  0.0000 -0.0000  0.0000
    1GRA      C 2424   4.963   6.201  12.500  0.0000 -0.0000  0.0000
    1GRA      C 2425   5.247   6.201  12.500 -0.0000 -0.0000  0.0000
    1GRA      C 2426   5.389   6.201  12.500 -0.0000 -0.0000  0.0000
    1GRA      C 2427   5.672   6.201  12.500  0.0000 -0.0000  0.0000
    1GRA      C 2428   5.814   6.201  12.500  0.0000 -0.0000  0.0000
    1GRA      C 2429   6.098   6.201  12.500 -0.0000 -0.0000  0.0000
    1GRA      C 2430   6.239   6.201  12.500  0.0000 -0.0000  0.0000
    1GRA      C 2431   6.523   6.201  12.500 -0.0000 -0.0000  0.0000
    1GRA      C 2432   6.665   6.201  12.500 -0.0000 -0.0000  0.0000
    1GRA      C 2433   6.948   6.201  12.500  0.0000 -0.0000 -0.0000
    1GRA      C 2434   7.090   6.201  12.500  0.0000 -0.0000 -0.0000
    1GRA      C 2435   7.374   6.201  12.500 -0.0000 -0.0000 -0.0000
    1GRA      C 2436   7.516   6.201  12.500 -0.0000 -0.0000  0.0000
    1GRA      C 2437   7.799   6.201  12.500  0.0000 -0.0000  0.0000
    1GRA      C 2438   7.941   6.201  12.500  0.0000 -0.0000  0.0000
    1GRA      C 2439   8.225   6.201  12.500 -0.0000 -0.0000  0.0000
    1GRA      C 2440   8.366   6.201  12.500  0.0000 -0.0000  0.0000
    1GRA      C 2441   8.650   6.201  12.500 -0.0000 -0.0000  0.0000
    1GRA      C 2442   8.792   6.201  12.500 -0.0000 -0.0000  0.0000
    1GRA      C 2443   9.075   6.201  12.500  0.0000  0.0000  0.0000
    1GRA      C 2444   9.217   6.201  12.500  0.0000  0.0000  0.0000
    1GRA      C 2445   9.501   6.201  12.500 -0.0000  0.0000  0.0000
    1GRA      C 2446   9.643   6.201  12.500 -0.0000  0.0000  0.0000
    1GRA      C 2447   9.926   6.201  12.500  0.0000  0.0000 -0.0000
    1GRA      C 2448  10.068   6.201  12.500  0.0000  0.0000 -0.0000
    1GRA      C 2449   0.071   6.324  12.500  0.0000 -0.0000  0.0000
    1GRA      C 2450   0.355   6.324  12.500 -0.0000 -0.0000  0.0000
    1GRA      C 2451   0.496   6.324  12.500  0.0000 -0.0000  0.0000
    1GRA      C 2452   0.780   6.324  12.500 -0.0000 -0.0000  0.0000
    1GRA      C 2453   0.922   6.324  12.500  0.0000 -0.0000  0.0000
    1GRA      C 2454   1.205   6.324  12.500  0.0000 -0.0000  0.0000
    1GRA      C 2455   1.347   6.324  12.500  0.0000 -0.0000  0.0000
    1GRA      C 2456   1.631   6.324  12.500 -0.0000 -0.0000  0.0000
    1GRA      C 2457   1.773   6.324  12.500  0.0000 -0.0000  0.0000
    1GRA      C 2458   2.056   6.324  12.500 -0.0000 -0.0000  0.0000
    1GRA      C 2459   2.198   6.324  12.500  0.0000 -0.0000  0.0000
    1GRA      C 2460   2.482   6.324  12.500 -0.0000 -0.0000  0.0000
    1GRA      C 2461   2.624   6.324  12.500 -0.0000 -0.0000  0.0000
    1GRA      C 2462   2.907   6.324  12.500 -0.0000 -0.0000  0.0000
    1GRA      C 2463   3.049   6.324  12.500  0.0000 -0.0000  0.0000
    1GRA      C 2464   3.333   6.324  12.500 -0.0000 -0.0000  0.0000
    1GRA      C 2465   3.474   6.324  12.500  0.0000 -0.0000  0.0000
    1GRA      C 2466   3.758   6.324  12.500 -0.0000 -0.0000  0.0000
    1GRA      C 2467   3.900   6.324  12.500  0.0000 -0.0000  0.0000
    1GRA      C 2468   4.183   6.324  12.500 -0.0000 -0.0000  0.0000
    1GRA      C 2469   4.325   6.324  12.500  0.0000 -0.0000  0.0000
    1GRA      C 2470   4.609   6.324  12.500 -0.0000 -0.0000  0.0000
    1GRA      C 2471   4.751   6.324  12.500 -0.0000 -0.0000  0.0000
    1GRA      C 2472   5.034   6.324  12.500 -0.0000 -0.0000  0.0000
    1GRA      C 2473   5.176   6.324  12.500  0.0000 -0.0000  0.0000
    1GRA      C 2474   5.459   6.324  12.500  0.0000 -0.0000  0.0000
    1GRA      C 2475   5.601   6.324  12.500  0.0000 -0.0000  0.0000
    1GRA      C 2476   5.885   6.324  12.500 -0.0000 -0.0000  0.0000
    1GRA      C 2477   6.027   6.324  12.500  0.0000 -0.0000  0.0000
    1GRA      C 2478   6.310   6.324  12.500 -0.0000 -0.0000  0.0000
    1GRA      C 2479   6.452   6.324  12.500  0.0000 -0.0000  0.0000
    1GRA      C 2480   6.736   6.324  12.500 -0.0000 -0.0000  0.0000
    1GRA      C 2481   6.878   6.324  12.500 -0.0000 -0.0000  0.0000
    1GRA      C 2482   7.161   6.324  12.500 -0.0000 -0.0000 -0.0000
    1GRA      C 2483   7.303   6.324  12.500  0.0000 -0.0000 -0.0000
    1GRA      C 2484   7.587   6.324  12.500 -0.0000 -0.0000  0.0000
    1GRA      C 2485   7.728   6.324  12.500  0.0000 -0.0000  0.0000
    1GRA      C 2486   8.012   6.324  12.500 -0.0000 -0.0000  0.0000
    1GRA      C 2487   8.154   6.324  12.500  0.0000 -0.0000  0.0000
    1GRA      C 2488   8.437   6.324  12.500 -0.0000 -0.0000  0.0000
    1GRA      C 2489   8.579   6.324  12.500  0.0000 -0.0000  0.0000
    1GRA      C 2490   8.863   6.324  12.500 -0.0000 -0.0000  0.0000
    1GRA      C 2491   9.005   6.324  12.500 -0.0000 -0.0000  0.0000
    1GRA      C 2492   9.288   6.324  12.500 -0.0000 -0.0000  0.0000
    1GRA      C 2493   9.430   6.324  12.500  0.0000 -0.0000  0.0000
    1GRA      C 2494   9.714   6.324  12.500 -0.0000 -0.0000  0.0000
    1GRA      C 2495   9.855   6.324  12.500  0.0000 -0.0000 -0.0000
    1GRA      C 2496  10.139   6.324  12.500 -0.0000 -0.0000 -0.0000
    1GRA      C 2497   0.142   6.447  12.500 -0.0000  0.0000 -0.0000
    1GRA      C 2498   0.284   6.447  12.500  0.0000  0.0000 -0.0000
    1GRA      C 2499   0.567   6.447  12.500 -0.0000  0.0000 -0.0000
    1GRA      C 2500   0.709   6.447  12.500  0.0000  0.0000  0.0000
    1GRA      C 2501   0.993   6.447  12.500 -0.0000  0.0000  0.0000
    1GRA      C 2502   1.135   6.447  12.500 -0.0000  0.0000  0.0000
    1GRA      C 2503   1.418   6.447  12.500 -0.0000  0.0000  0.0000
    1GRA      C 2504   1.560   6.447  12.500  0.0000  0.0000  0.0000
    1GRA      C 2505   1.844   6.447  12.500 -0.0000  0.0000  0.0000
    1GRA      C 2506   1.985   6.447  12.500  0.0000  0.0000  0.0000
    1GRA      C 2507   2.269   6.447  12.500 -0.0000  0.0000  0.0000
    1GRA      C 2508   2.411   6.447  12.500  0.0000  0.0000  0.0000
    1GRA      C 2509   2.694   6.447  12.500  0.0000  0.0000  0.0000
    1GRA      C 2510   2.836   6.447  12.500  0.0000  0.0000  0.0000
    1GRA      C 2511   3.120   6.447  12.500 -0.0000  0.0000  0.0000
    1GRA      C 2512   3.262   6.447  12.500  0.0000  0.0000  0.0000
    1GRA      C 2513   3.545   6.447  12.500 -0.0000  0.0000  0.0000
    1GRA      C 2514   3.687   6.447  12.500  0.0000  0.0000  0.0000
    1GRA      C 2515   3.971   6.447  12.500 -0.0000  0.0000  0.0000
    1GRA      C 2516   4.112   6.447  12.500  0.0000  0.0000  0.0000
    1GRA      C 2517   4.396   6.447  12.500 -0.0000  0.0000  0.0000
    1GRA      C 2518   4.538   6.447  12.500  0.0000  0.0000  0.0000
    1GRA      C 2519   4.821   6.447  12.500  0.0000  0.0000  0.0000
    1GRA      C 2520   4.963   6.447  12.500  0.0000  0.0000  0.0000
    1GRA      C 2521   5.247   6.447  12.500 -0.0000  0.0000  0.0000
    1GRA      C 2522   5.389   6.447  12.500 -0.0000  0.0000  0.0000
    1GRA      C 2523   5.672   6.447  12.500 -0.0000  0.0000  0.0000
    1GRA      C 2524   5.814   6.447  12.500  0.0000  0.0000  0.0000
    1GRA      C 2525   6.098   6.447  12.500 -0.0000  0.0000  0.0000
    1GRA      C 2526   6.239   6.447  12.500  0.0000  0.0000  0.0000
    1GRA      C 2527   6.523   6.447  12.500 -0.0000  0.0000  0.0000
    1GRA      C 2528   6.665   6.447  12.500  0.0000  0.0000  0.0000
    1GRA      C 2529   6.948   6.447  12.500  0.0000  0.0000  0.0000
    1GRA      C 2530   7.090   6.447  12.500  0.0000  0.0000 -0.0000
    1GRA      C 2531   7.374   6.447  12.500 -0.0000  0.0000 -0.0000
    1GRA      C 2532   7.516   6.447  12.500  0.0000  0.0000 -0.0000
    1GRA      C 2533   7.799   6.447  12.500 -0.0000  0.0000  0.0000
    1GRA      C 2534   7.941   6.447  12.500  0.0000  0.0000  0.0000
    1GRA      C 2535   8.225   6.447  12.500 -0.0000  0.0000  0.0000
    1GRA      C 2536   8.366   6.447  12.500  0.0000  0.0000  0.0000
    1GRA      C 2537   8.650   6.447  12.500 -0.0000  0.0000  0.0000
    1GRA      C 2538   8.792   6.447  12.500  0.0000  0.0000  0.0000
    1GRA      C 2539   9.075   6.447  12.500  0.0000  0.0000  0.0000
    1GRA      C 2540   9.217   6.447  12.500  0.0000  0.0000  0.0000
    1GRA      C 2541   9.501   6.447  12.500 -0.0000  0.0000  0.0000
    1GRA      C 2542   9.643   6.447  12.500  0.0000  0.0000  0.0000
    1GRA      C 2543   9.926   6.447  12.500 -0.0000  0.0000 -0.0000
    1GRA      C 2544  10.068   6.447  12.500  0.0000  0.0000 -0.0000
    1GRA      C 2545   0.071   6.569  12.500  0.0000 -0.0000 -0.0000
    1GRA      C 2546   0.355   6.569  12.500 -0.0000 -0.0000 -0.0000
    1GRA      C 2547   0.496   6.569  12.500  0.0000 -0.0000 -0.0000
    1GRA      C 2548   0.780   6.569  12.500 -0.0000 -0.0000 -0.0000
    1GRA      C 2549   0.922   6.569  12.500  0.0000 -0.0000 -0.0000
    1GRA      C 2550   1.205   6.569  12.500  0.0000 -0.0000  0.0000
    1GRA      C 2551   1.347   6.569  12.500  0.0000 -0.0000  0.0000
    1GRA      C 2552   1.631   6.569  12.500 -0.0000 -0.0000  0.0000
    1GRA      C 2553   1.773   6.569  12.500  0.0000 -0.0000  0.0000
    1GRA      C 2554   2.056   6.569  12.500 -0.0000 -0.0000  0.0000
    1GRA      C 2555   2.198   6.569  12.500  0.0000 -0.0000  0.0000
    1GRA      C 2556   2.482   6.569  12.500 -0.0000 -0.0000  0.0000
    1GRA      C 2557   2.624   6.569  12.500 -0.0000 -0.0000  0.0000
    1GRA      C 2558   2.907   6.569  12.500 -0.0000 -0.0000  0.0000
    1GRA      C 2559   3.049   6.569  12.500  0.0000 -0.0000  0.0000
    1GRA      C 2560   3.333   6.569  12.500 -0.0000 -0.0000  0.0000
    1GRA      C 2561   3.474   6.569  12.500  0.0000 -0.0000  0.0000
    1GRA      C 2562   3.758   6.569  12.500 -0.0000 -0.0000  0.0000
    1GRA      C 2563   3.900   6.569  12.500  0.0000 -0.0000  0.0000
    1GRA      C 2564   4.183   6.569  12.500 -0.0000 -0.0000  0.0000
    1GRA      C 2565   4.325   6.569  12.500  0.0000 -0.0000  0.0000
    1GRA      C 2566   4.609   6.569  12.500 -0.0000 -0.0000  0.0000
    1GRA      C 2567   4.751   6.569  12.500 -0.0000 -0.0000  0.0000
    1GRA      C 2568   5.034   6.569  12.500 -0.0000 -0.0000  0.0000
    1GRA      C 2569   5.176   6.569  12.500  0.0000 -0.0000  0.0000
    1GRA      C 2570   5.459   6.569  12.500  0.0000 -0.0000  0.0000
    1GRA      C 2571   5.601   6.569  12.500  0.0000 -0.0000  0.0000
    1GRA      C 2572   5.885   6.569  12.500 -0.0000 -0.0000  0.0000
    1GRA      C 2573   6.027   6.569  12.500  0.0000 -0.0000  0.0000
    1GRA      C 2574   6.310   6.569  12.500 -0.0000 -0.0000  0.0000
    1GRA      C 2575   6.452   6.569  12.500  0.0000 -0.0000  0.0000
    1GRA      C 2576   6.736   6.569  12.500 -0.0000 -0.0000  0.0000
    1GRA      C 2577   6.878   6.569  12.500 -0.0000 -0.0000  0.0000
    1GRA      C 2578   7.161   6.569  12.500 -0.0000 -0.0000  0.0000
    1GRA      C 2579   7.303   6.569  12.500  0.0000 -0.0000 -0.0000
    1GRA      C 2580   7.587   6.569  12.500 -0.0000 -0.0000 -0.0000
    1GRA      C 2581   7.728   6.569  12.500  0.0000 -0.0000 -0.0000
    1GRA      C 2582   8.012   6.569  12.500 -0.0000 -0.0000  0.0000
    1GRA      C 2583   8.154   6.569  12.500  0.0000 -0.0000  0.0000
    1GRA      C 2584   8.437   6.569  12.500 -0.0000 -0.0000  0.0000
    1GRA      C 2585   8.579   6.569  12.500  0.0000 -0.0000  0.0000
    1GRA      C 2586   8.863   6.569  12.500 -0.0000 -0.0000  0.0000
    1GRA      C 2587   9.005   6.569  12.500 -0.0000 -0.0000  0.0000
    1GRA      C 2588   9.288   6.569  12.500 -0.0000 -0.0000  0.0000
    1GRA      C 2589   9.430   6.569  12.500  0.0000 -0.0000  0.0000
    1GRA      C 2590   9.714   6.569  12.500 -0.0000 -0.0000  0.0000
    1GRA      C 2591   9.855   6.569  12.500  0.0000 -0.0000 -0.0000
    1GRA      C 2592  10.139   6.569  12.500 -0.0000 -0.0000 -0.0000
    1GRA      C 2593   0.142   6.692  12.500 -0.0000  0.0000  0.0000
    1GRA      C 2594   0.284   6.692  12.500  0.0000  0.0000  0.0000
    1GRA      C 2595   0.567   6.692  12.500 -0.0000  0.0000 -0.0000
    1GRA      C 2596   0.709   6.692  12.500  0.0000  0.0000 -0.0000
    1GRA      C 2597   0.993   6.692  12.500 -0.0000  0.0000 -0.0000
    1GRA      C 2598   1.135   6.692  12.500 -0.0000  0.0000  0.0000
    1GRA      C 2599   1.418   6.692  12.500 -0.0000  0.0000  0.0000
    1GRA      C 2600   1.560   6.692  12.500  0.0000  0.0000  0.0000
    1GRA      C 2601   1.844   6.692  12.500 -0.0000  0.0000  0.0000
    1GRA      C 2602   1.985   6.692  12.500  0.0000  0.0000  0.0000
    1GRA      C 2603   2.269   6.692  12.500 -0.0000  0.0000  0.0000
    1GRA      C 2604   2.411   6.692  12.500  0.0000  0.0000  0.0000
    1GRA      C 2605   2.694   6.692  12.500  0.0000  0.0000  0.0000
    1GRA      C 2606   2.836   6.692  12.500  0.0000  0.0000  0.0000
    1GRA      C 2607   3.120   6.692  12.500 -0.0000  0.0000  0.0000
    1GRA      C 2608   3.262   6.692  12.500  0.0000  0.0000  0.0000
    1GRA      C 2609   3.545   6.692  12.500 -0.0000  0.0000  0.0000
    1GRA      C 2610   3.687   6.692  12.500  0.0000  0.0000  0.0000
    1GRA      C 2611   3.971   6.692  12.500 -0.0000  0.0000  0.0000
    1GRA      C 2612   4.112   6.692  12.500  0.0000  0.0000  0.0000
    1GRA      C 2613   4.396   6.692  12.500 -0.0000  0.0000  0.0000
    1GRA      C 2614   4.538   6.692  12.500  0.0000  0.0000  0.0000
    1GRA      C 2615   4.821   6.692  12.500  0.0000  0.0000  0.0000
    1GRA      C 2616   4.963   6.692  12.500  0.0000  0.0000  0.0000
    1GRA      C 2617   5.247   6.692  12.500 -0.0000  0.0000  0.0000
    1GRA      C 2618   5.389   6.692  12.500 -0.0000  0.0000  0.0000
    1GRA      C 2619   5.672   6.692  12.500 -0.0000  0.0000  0.0000
    1GRA      C 2620   5.814   6.692  12.500  0.0000  0.0000  0.0000
    1GRA      C 2621   6.098   6.692  12.500 -0.0000  0.0000  0.0000
    1GRA      C 2622   6.239   6.692  12.500  0.0000  0.0000  0.0000
    1GRA      C 2623   6.523   6.692  12.500 -0.0000  0.0000  0.0000
    1GRA      C 2624   6.665   6.692  12.500  0.0000  0.0000  0.0000
    1GRA      C 2625   6.948   6.692  12.500  0.0000  0.0000  0.0000
    1GRA      C 2626   7.090   6.692  12.500  0.0000  0.0000  0.0000
    1GRA      C 2627   7.374   6.692  12.500 -0.0000  0.0000 -0.0000
    1GRA      C 2628   7.516   6.692  12.500  0.0000  0.0000 -0.0000
    1GRA      C 2629   7.799   6.692  12.500 -0.0000  0.0000 -0.0000
    1GRA      C 2630   7.941   6.692  12.500  0.0000  0.0000  0.0000
    1GRA      C 2631   8.225   6.692  12.500 -0.0000  0.0000  0.0000
    1GRA      C 2632   8.366   6.692  12.500  0.0000  0.0000  0.0000
    1GRA      C 2633   8.650   6.692  12.500 -0.0000  0.0000  0.0000
    1GRA      C 2634   8.792   6.692  12.500  0.0000  0.0000  0.0000
    1GRA      C 2635   9.075   6.692  12.500  0.0000  0.0000  0.0000
    1GRA      C 2636   9.217   6.692  12.500  0.0000  0.0000  0.0000
    1GRA      C 2637   9.501   6.692  12.500 -0.0000  0.0000  0.0000
    1GRA      C 2638   9.643   6.692  12.500  0.0000  0.0000  0.0000
    1GRA      C 2639   9.926   6.692  12.500 -0.0000  0.0000 -0.0000
    1GRA      C 2640  10.068   6.692  12.500  0.0000  0.0000 -0.0000
    1GRA      C 2641   0.071   6.815  12.500  0.0000 -0.0000  0.0000
    1GRA      C 2642   0.355   6.815  12.500 -0.0000 -0.0000  0.0000
    1GRA      C 2643   0.496   6.815  12.500  0.0000 -0.0000  0.0000
    1GRA      C 2644   0.780   6.815  12.500 -0.0000  0.0000 -0.0000
    1GRA      C 2645   0.922   6.815  12.500 -0.0000  0.0000 -0.0000
    1GRA      C 2646   1.205   6.815  12.500  0.0000  0.0000  0.0000
    1GRA      C 2647   1.347   6.815  12.500  0.0000  0.0000  0.0000
    1GRA      C 2648   1.631   6.815  12.500 -0.0000  0.0000  0.0000
    1GRA      C 2649   1.773   6.815  12.500 -0.0000  0.0000  0.0000
    1GRA      C 2650   2.056   6.815  12.500  0.0000  0.0000  0.0000
    1GRA      C 2651   2.198   6.815  12.500  0.0000  0.0000  0.0000
    1GRA      C 2652   2.482   6.815  12.500 -0.0000  0.0000  0.0000
    1GRA      C 2653   2.624   6.815  12.500 -0.0000  0.0000  0.0000
    1GRA      C 2654   2.907   6.815  12.500  0.0000 -0.0000  0.0000
    1GRA      C 2655   3.049   6.815  12.500  0.0000 -0.0000  0.0000
    1GRA      C 2656   3.333   6.815  12.500 -0.0000 -0.0000  0.0000
    1GRA      C 2657   3.474   6.815  12.500  0.0000 -0.0000  0.0000
    1GRA      C 2658   3.758   6.815  12.500 -0.0000 -0.0000  0.0000
    1GRA      C 2659   3.900   6.815  12.500 -0.0000 -0.0000  0.0000
    1GRA      C 2660   4.183   6.815  12.500  0.0000 -0.0000  0.0000
    1GRA      C 2661   4.325   6.815  12.500  0.0000 -0.0000  0.0000
    1GRA      C 2662   4.609   6.815  12.500 -0.0000 -0.0000  0.0000
    1GRA      C 2663   4.751   6.815  12.500 -0.0000 -0.0000  0.0000
    1GRA      C 2664   5.034   6.815  12.500  0.0000 -0.0000  0.0000
    1GRA      C 2665   5.176   6.815  12.500 -0.0000 -0.0000  0.0000
    1GRA      C 2666   5.459   6.815  12.500  0.0000 -0.0000  0.0000
    1GRA      C 2667   5.601   6.815  12.500  0.0000 -0.0000  0.0000
    1GRA      C 2668   5.885   6.815  12.500 -0.0000 -0.0000  0.0000
    1GRA      C 2669   6.027   6.815  12.500 -0.0000 -0.0000  0.0000
    1GRA      C 2670   6.310   6.815  12.500  0.0000 -0.0000  0.0000
    1GRA      C 2671   6.452   6.815  12.500  0.0000 -0.0000  0.0000
    1GRA      C 2672   6.736   6.815  12.500 -0.0000 -0.0000  0.0000
    1GRA      C 2673   6.878   6.815  12.500 -0.0000 -0.0000  0.0000
    1GRA      C 2674   7.161   6.815  12.500  0.0000 -0.0000  0.0000
    1GRA      C 2675   7.303   6.815  12.500  0.0000 -0.0000  0.0000
    1GRA      C 2676   7.587   6.815  12.500 -0.0000 -0.0000 -0.0000
    1GRA      C 2677   7.728   6.815  12.500  0.0000 -0.0000 -0.0000
    1GRA      C 2678   8.012   6.815  12.500 -0.0000  0.0000  0.0000
    1GRA      C 2679   8.154   6.815  12.500 -0.0000  0.0000  0.0000
    1GRA      C 2680   8.437   6.815  12.500  0.0000  0.0000  0.0000
    1GRA      C 2681   8.579   6.815  12.500  0.0000  0.0000  0.0000
    1GRA      C 2682   8.863   6.815  12.500 -0.0000  0.0000  0.0000
    1GRA      C 2683   9.005   6.815  12.500 -0.0000  0.0000  0.0000
    1GRA      C 2684   9.288   6.815  12.500  0.0000  0.0000  0.0000
    1GRA      C 2685   9.430   6.815  12.500  0.0000  0.0000  0.0000
    1GRA      C 2686   9.714   6.815  12.500 -0.0000 -0.0000 -0.0000
    1GRA      C 2687   9.855   6.815  12.500  0.0000 -0.0000  0.0000
    1GRA      C 2688  10.139   6.815  12.500 -0.0000 -0.0000  0.0000
    1GRA      C 2689   0.142   6.938  12.500 -0.0000 -0.0000  0.0000
    1GRA      C 2690   0.284   6.938  12.500  0.0000 -0.0000  0.0000
    1GRA      C 2691   0.567   6.938  12.500 -0.0000 -0.0000 -0.0000
    1GRA      C 2692   0.709   6.938  12.500  0.0000 -0.0000 -0.0000
    1GRA      C 2693   0.993   6.938  12.500 -0.0000 -0.0000 -0.0000
    1GRA      C 2694   1.135   6.938  12.500 -0.0000 -0.0000 -0.0000
    1GRA      C 2695   1.418   6.938  12.500 -0.0000 -0.0000  0.0000
    1GRA      C 2696   1.560   6.938  12.500  0.0000 -0.0000  0.0000
    1GRA      C 2697   1.844   6.938  12.500 -0.0000 -0.0000  0.0000
    1GRA      C 2698   1.985   6.938  12.500  0.0000 -0.0000  0.0000
    1GRA      C 2699   2.269   6.938  12.500 -0.0000 -0.0000  0.0000
    1GRA      C 2700   2.411   6.938  12.500  0.0000 -0.0000  0.0000
    1GRA      C 2701   2.694   6.938  12.500  0.0000 -0.0000  0.0000
    1GRA      C 2702   2.836   6.938  12.500  0.0000 -0.0000  0.0000
    1GRA      C 2703   3.120   6.938  12.500 -0.0000 -0.0000  0.0000
    1GRA      C 2704   3.262   6.938  12.500  0.0000 -0.0000  0.0000
    1GRA      C 2705   3.545   6.938  12.500 -0.0000 -0.0000  0.0000
    1GRA      C 2706   3.687   6.938  12.500  0.0000 -0.0000  0.0000
    1GRA      C 2707   3.971   6.938  12.500 -0.0000 -0.0000  0.0000
    1GRA      C 2708   4.112   6.938  12.500  0.0000 -0.0000  0.0000
    1GRA      C 2709   4.396   6.938  12.500 -0.0000 -0.0000  0.0000
    1GRA      C 2710   4.538   6.938  12.500  0.0000 -0.0000  0.0000
    1GRA      C 2711   4.821   6.938  12.500  0.0000 -0.0000  0.0000
    1GRA      C 2712   4.963   6.938  12.500  0.0000 -0.0000  0.0000
    1GRA      C 2713   5.247   6.938  12.500 -0.0000 -0.0000  0.0000
    1GRA      C 2714   5.389   6.938  12.500 -0.0000 -0.0000  0.0000
    1GRA      C 2715   5.672   6.938  12.500 -0.0000 -0.0000  0.0000
    1GRA      C 2716   5.814   6.938  12.500  0.0000 -0.0000  0.0000
    1GRA      C 2717   6.098   6.938  12.500 -0.0000 -0.0000  0.0000
    1GRA      C 2718   6.239   6.938  12.500  0.0000 -0.0000  0.0000
    1GRA      C 2719   6.523   6.938  12.500 -0.0000 -0.0000  0.0000
    1GRA      C 2720   6.665   6.938  12.500  0.0000 -0.0000  0.0000
    1GRA      C 2721   6.948   6.938  12.500  0.0000 -0.0000  0.0000
    1GRA      C 2722   7.090   6.938  12.500  0.0000 -0.0000  0.0000
    1GRA      C 2723   7.374   6.938  12.500 -0.0000 -0.0000  0.0000
    1GRA      C 2724   7.516   6.938  12.500  0.0000 -0.0000  0.0000
    1GRA      C 2725   7.799   6.938  12.500 -0.0000 -0.0000 -0.0000
    1GRA      C 2726   7.941   6.938  12.500  0.0000 -0.0000 -0.0000
    1GRA      C 2727   8.225   6.938  12.500 -0.0000 -0.0000  0.0000
    1GRA      C 2728   8.366   6.938  12.500  0.0000 -0.0000  0.0000
    1GRA      C 2729   8.650   6.938  12.500 -0.0000 -0.0000  0.0000
    1GRA      C 2730   8.792   6.938  12.500  0.0000 -0.0000  0.0000
    1GRA      C 2731   9.075   6.938  12.500  0.0000 -0.0000  0.0000
    1GRA      C 2732   9.217   6.938  12.500  0.0000 -0.0000  0.0000
    1GRA      C 2733   9.501   6.938  12.500 -0.0000 -0.0000 -0.0000
    1GRA      C 2734   9.643   6.938  12.500  0.0000 -0.0000 -0.0000
    1GRA      C 2735   9.926   6.938  12.500 -0.0000 -0.0000  0.0000
    1GRA      C 2736  10.068   6.938  12.500  0.0000 -0.0000  0.0000
    1GRA      C 2737   0.071   7.061  12.500  0.0000  0.0000  0.0000
    1GRA      C 2738   0.355   7.061  12.500 -0.0000  0.0000  0.0000
    1GRA      C 2739   0.496   7.061  12.500  0.0000  0.0000  0.0000
    1GRA      C 2740   0.780   7.061  12.500 -0.0000  0.0000  0.0000
    1GRA      C 2741   0.922   7.061  12.500  0.0000  0.0000 -0.0000
    1GRA      C 2742   1.205   7.061  12.500  0.0000  0.0000 -0.0000
    1GRA      C 2743   1.347   7.061  12.500  0.0000  0.0000 -0.0000
    1GRA      C 2744   1.631   7.061  12.500 -0.0000  0.0000  0.0000
    1GRA      C 2745   1.773   7.061  12.500  0.0000  0.0000  0.0000
    1GRA      C 2746   2.056   7.061  12.500 -0.0000  0.0000  0.0000
    1GRA      C 2747   2.198   7.061  12.500  0.0000  0.0000  0.0000
    1GRA      C 2748   2.482   7.061  12.500 -0.0000  0.0000  0.0000
    1GRA      C 2749   2.624   7.061  12.500 -0.0000  0.0000  0.0000
    1GRA      C 2750   2.907   7.061  12.500 -0.0000  0.0000  0.0000
    1GRA      C 2751   3.049   7.061  12.500  0.0000  0.0000  0.0000
    1GRA      C 2752   3.333   7.061  12.500 -0.0000  0.0000  0.0000
    1GRA      C 2753   3.474   7.061  12.500  0.0000  0.0000  0.0000
    1GRA      C 2754   3.758   7.061  12.500 -0.0000  0.0000  0.0000
    1GRA      C 2755   3.900   7.061  12.500  0.0000  0.0000  0.0000
    1GRA      C 2756   4.183   7.061  12.500 -0.0000  0.0000  0.0000
    1GRA      C 2757   4.325   7.061  12.500  0.0000  0.0000  0.0000
    1GRA      C 2758   4.609   7.061  12.500 -0.0000  0.0000  0.0000
    1GRA      C 2759   4.751   7.061  12.500 -0.0000  0.0000  0.0000
    1GRA      C 2760   5.034   7.061  12.500 -0.0000  0.0000  0.0000
    1GRA      C 2761   5.176   7.061  12.500  0.0000  0.0000  0.0000
    1GRA      C 2762   5.459   7.061  12.500  0.0000  0.0000  0.0000
    1GRA      C 2763   5.601   7.061  12.500  0.0000  0.0000  0.0000
    1GRA      C 2764   5.885   7.061  12.500 -0.0000  0.0000  0.0000
    1GRA      C 2765   6.027   7.061  12.500  0.0000  0.0000  0.0000
    1GRA      C 2766   6.310   7.061  12.500 -0.0000  0.0000  0.0000
    1GRA      C 2767   6.452   7.061  12.500  0.0000  0.0000  0.0000
    1GRA      C 2768   6.736   7.061  12.500 -0.0000  0.0000  0.0000
    1GRA      C 2769   6.878   7.061  12.500 -0.0000  0.0000  0.0000
    1GRA      C 2770   7.161   7.061  12.500 -0.0000  0.0000  0.0000
    1GRA      C 2771   7.303   7.061  12.500  0.0000  0.0000  0.0000
    1GRA      C 2772   7.587   7.061  12.500 -0.0000  0.0000  0.0000
    1GRA      C 2773   7.728   7.061  12.500  0.0000  0.0000 -0.0000
    1GRA      C 2774   8.012   7.061  12.500 -0.0000  0.0000 -0.0000
    1GRA      C 2775   8.154   7.061  12.500  0.0000  0.0000  0.0000
    1GRA      C 2776   8.437   7.061  12.500 -0.0000  0.0000  0.0000
    1GRA      C 2777   8.579   7.061  12.500  0.0000  0.0000  0.0000
    1GRA      C 2778   8.863   7.061  12.500 -0.0000  0.0000  0.0000
    1GRA      C 2779   9.005   7.061  12.500 -0.0000  0.0000  0.0000
    1GRA      C 2780   9.288   7.061  12.500 -0.0000  0.0000 -0.0000
    1GRA      C 2781   9.430   7.061  12.500  0.0000  0.0000 -0.0000
    1GRA      C 2782   9.714   7.061  12.500 -0.0000  0.0000 -0.0000
    1GRA      C 2783   9.855   7.061  12.500  0.0000  0.0000  0.0000
    1GRA      C 2784  10.139   7.061  12.500 -0.0000  0.0000  0.0000
    1GRA      C 2785   0.142   7.183  12.500 -0.0000 -0.0000  0.0000
    1GRA      C 2786   0.284   7.183  12.500  0.0000 -0.0000  0.0000
    1GRA      C 2787   0.567   7.183  12.500 -0.0000 -0.0000  0.0000
    1GRA      C 2788   0.709   7.183  12.500  0.0000 -0.0000  0.0000
    1GRA      C 2789   0.993   7.183  12.500 -0.0000 -0.0000 -0.0000
    1GRA      C 2790   1.135   7.183  12.500 -0.0000 -0.0000 -0.0000
    1GRA      C 2791   1.418   7.183  12.500 -0.0000 -0.0000 -0.0000
    1GRA      C 2792   1.560   7.183  12.500  0.0000 -0.0000  0.0000
    1GRA      C 2793   1.844   7.183  12.500 -0.0000 -0.0000  0.0000
    1GRA      C 2794   1.985   7.183  12.500  0.0000 -0.0000  0.0000
    1GRA      C 2795   2.269   7.183  12.500 -0.0000 -0.0000  0.0000
    1GRA      C 2796   2.411   7.183  12.500  0.0000 -0.0000  0.0000
    1GRA      C 2797   2.694   7.183  12.500  0.0000 -0.0000  0.0000
    1GRA      C 2798   2.836   7.183  12.500  0.0000 -0.0000  0.0000
    1GRA      C 2799   3.120   7.183  12.500 -0.0000 -0.0000  0.0000
    1GRA      C 2800   3.262   7.183  12.500  0.0000 -0.0000  0.0000
    1GRA      C 2801   3.545   7.183  12.500 -0.0000 -0.0000  0.0000
    1GRA      C 2802   3.687   7.183  12.500  0.0000 -0.0000  0.0000
    1GRA      C 2803   3.971   7.183  12.500 -0.0000 -0.0000  0.0000
    1GRA      C 2804   4.112   7.183  12.500  0.0000 -0.0000  0.0000
    1GRA      C 2805   4.396   7.183  12.500 -0.0000 -0.0000  0.0000
    1GRA      C 2806   4.538   7.183  12.500  0.0000 -0.0000  0.0000
    1GRA      C 2807   4.821   7.183  12.500  0.0000 -0.0000  0.0000
    1GRA      C 2808   4.963   7.183  12.500  0.0000 -0.0000  0.0000
    1GRA      C 2809   5.247   7.183  12.500 -0.0000 -0.0000  0.0000
    1GRA      C 2810   5.389   7.183  12.500 -0.0000 -0.0000  0.0000
    1GRA      C 2811   5.672   7.183  12.500 -0.0000 -0.0000  0.0000
    1GRA      C 2812   5.814   7.183  12.500  0.0000 -0.0000  0.0000
    1GRA      C 2813   6.098   7.183  12.500 -0.0000 -0.0000  0.0000
    1GRA      C 2814   6.239   7.183  12.500  0.0000 -0.0000  0.0000
    1GRA      C 2815   6.523   7.183  12.500 -0.0000 -0.0000  0.0000
    1GRA      C 2816   6.665   7.183  12.500  0.0000 -0.0000  0.0000
    1GRA      C 2817   6.948   7.183  12.500  0.0000 -0.0000  0.0000
    1GRA      C 2818   7.090   7.183  12.500  0.0000 -0.0000  0.0000
    1GRA      C 2819   7.374   7.183  12.500 -0.0000 -0.0000  0.0000
    1GRA      C 2820   7.516   7.183  12.500  0.0000 -0.0000  0.0000
    1GRA      C 2821   7.799   7.183  12.500 -0.0000 -0.0000 -0.0000
    1GRA      C 2822   7.941   7.183  12.500  0.0000 -0.0000 -0.0000
    1GRA      C 2823   8.225   7.183  12.500 -0.0000 -0.0000  0.0000
    1GRA      C 2824   8.366   7.183  12.500  0.0000 -0.0000  0.0000
    1GRA      C 2825   8.650   7.183  12.500 -0.0000 -0.0000  0.0000
    1GRA      C 2826   8.792   7.183  12.500  0.0000 -0.0000  0.0000
    1GRA      C 2827   9.075   7.183  12.500  0.0000 -0.0000  0.0000
    1GRA      C 2828   9.217   7.183  12.500  0.0000 -0.0000 -0.0000
    1GRA      C 2829   9.501   7.183  12.500 -0.0000 -0.0000 -0.0000
    1GRA      C 2830   9.643   7.183  12.500  0.0000 -0.0000 -0.0000
    1GRA      C 2831   9.926   7.183  12.500 -0.0000 -0.0000  0.0000
    1GRA      C 2832  10.068   7.183  12.500  0.0000 -0.0000  0.0000
    1GRA      C 2833   0.071   7.306  12.500  0.0000  0.0000 -0.0000
    1GRA      C 2834   0.355   7.306  12.500 -0.0000  0.0000  0.0000
    1GRA      C 2835   0.496   7.306  12.500  0.0000  0.0000  0.0000
    1GRA      C 2836   0.780   7.306  12.500 -0.0000  0.0000  0.0000
    1GRA      C 2837   0.922   7.306  12.500  0.0000  0.0000  0.0000
    1GRA      C 2838   1.205   7.306  12.500  0.0000  0.0000 -0.0000
    1GRA      C 2839   1.347   7.306  12.500  0.0000  0.0000 -0.0000
    1GRA      C 2840   1.631   7.306  12.500 -0.0000  0.0000  0.0000
    1GRA      C 2841   1.773   7.306  12.500  0.0000  0.0000  0.0000
    1GRA      C 2842   2.056   7.306  12.500 -0.0000  0.0000  0.0000
    1GRA      C 2843   2.198   7.306  12.500  0.0000  0.0000  0.0000
    1GRA      C 2844   2.482   7.306  12.500 -0.0000  0.0000  0.0000
    1GRA      C 2845   2.624   7.306  12.500 -0.0000  0.0000  0.0000
    1GRA      C 2846   2.907   7.306  12.500 -0.0000  0.0000  0.0000
    1GRA      C 2847   3.049   7.306  12.500  0.0000  0.0000  0.0000
    1GRA      C 2848   3.333   7.306  12.500 -0.0000  0.0000  0.0000
    1GRA      C 2849   3.474   7.306  12.500  0.0000  0.0000  0.0000
    1GRA      C 2850   3.758   7.306  12.500 -0.0000  0.0000  0.0000
    1GRA      C 2851   3.900   7.306  12.500  0.0000  0.0000  0.0000
    1GRA      C 2852   4.183   7.306  12.500 -0.0000  0.0000  0.0000
    1GRA      C 2853   4.325   7.306  12.500  0.0000  0.0000  0.0000
    1GRA      C 2854   4.609   7.306  12.500 -0.0000  0.0000  0.0000
    1GRA      C 2855   4.751   7.306  12.500 -0.0000  0.0000  0.0000
    1GRA      C 2856   5.034   7.306  12.500 -0.0000  0.0000  0.0000
    1GRA      C 2857   5.176   7.306  12.500  0.0000  0.0000  0.0000
    1GRA      C 2858   5.459   7.306  12.500  0.0000  0.0000  0.0000
    1GRA      C 2859   5.601   7.306  12.500  0.0000  0.0000  0.0000
    1GRA      C 2860   5.885   7.306  12.500 -0.0000  0.0000  0.0000
    1GRA      C 2861   6.027   7.306  12.500  0.0000  0.0000  0.0000
    1GRA      C 2862   6.310   7.306  12.500 -0.0000  0.0000  0.0000
    1GRA      C 2863   6.452   7.306  12.500  0.0000  0.0000  0.0000
    1GRA      C 2864   6.736   7.306  12.500 -0.0000  0.0000  0.0000
    1GRA      C 2865   6.878   7.306  12.500 -0.0000  0.0000  0.0000
    1GRA      C 2866   7.161   7.306  12.500 -0.0000  0.0000  0.0000
    1GRA      C 2867   7.303   7.306  12.500  0.0000  0.0000  0.0000
    1GRA      C 2868   7.587   7.306  12.500 -0.0000  0.0000  0.0000
    1GRA      C 2869   7.728   7.306  12.500  0.0000  0.0000  0.0000
    1GRA      C 2870   8.012   7.306  12.500 -0.0000  0.0000 -0.0000
    1GRA      C 2871   8.154   7.306  12.500  0.0000  0.0000 -0.0000
    1GRA      C 2872   8.437   7.306  12.500 -0.0000  0.0000  0.0000
    1GRA      C 2873   8.579   7.306  12.500  0.0000  0.0000  0.0000
    1GRA      C 2874   8.863   7.306  12.500 -0.0000  0.0000  0.0000
    1GRA      C 2875   9.005   7.306  12.500 -0.0000  0.0000  0.0000
    1GRA      C 2876   9.288   7.306  12.500 -0.0000  0.0000 -0.0000
    1GRA      C 2877   9.430   7.306  12.500  0.0000  0.0000 -0.0000
    1GRA      C 2878   9.714   7.306  12.500 -0.0000  0.0000  0.0000
    1GRA      C 2879   9.855   7.306  12.500  0.0000  0.0000  0.0000
    1GRA      C 2880  10.139   7.306  12.500 -0.0000  0.0000  0.0000
    1GRA      C 2881   0.142   7.429  12.500 -0.0000 -0.0000 -0.0000
    1GRA      C 2882   0.284   7.429  12.500 -0.0000 -0.0000 -0.0000
    1GRA      C 2883   0.567   7.429  12.500  0.0000  0.0000  0.0000
    1GRA      C 2884   0.709   7.429  12.500  0.0000  0.0000  0.0000
    1GRA      C 2885   0.993   7.429  12.500 -0.0000  0.0000  0.0000
    1GRA      C 2886   1.135   7.429  12.500 -0.0000  0.0000 -0.0000
    1GRA      C 2887   1.418   7.429  12.500  0.0000  0.0000 -0.0000
    1GRA      C 2888   1.560   7.429  12.500  0.0000 -0.0000 -0.0000
    1GRA      C 2889   1.844   7.429  12.500 -0.0000  0.0000  0.0000
    1GRA      C 2890   1.985   7.429  12.500  0.0000  0.0000  0.0000
    1GRA      C 2891   2.269   7.429  12.500 -0.0000  0.0000  0.0000
    1GRA      C 2892   2.411   7.429  12.500 -0.0000  0.0000  0.0000
    1GRA      C 2893   2.694   7.429  12.500  0.0000  0.0000  0.0000
    1GRA      C 2894   2.836   7.429  12.500  0.0000  0.0000  0.0000
    1GRA      C 2895   3.120   7.429  12.500 -0.0000  0.0000  0.0000
    1GRA      C 2896   3.262   7.429  12.500 -0.0000  0.0000  0.0000
    1GRA      C 2897   3.545   7.429  12.500  0.0000  0.0000  0.0000
    1GRA      C 2898   3.687   7.429  12.500  0.0000  0.0000  0.0000
    1GRA      C 2899   3.971   7.429  12.500 -0.0000  0.0000  0.0000
    1GRA      C 2900   4.112   7.429  12.500  0.0000  0.0000  0.0000
    1GRA      C 2901   4.396   7.429  12.500 -0.0000  0.0000  0.0000
    1GRA      C 2902   4.538   7.429  12.500 -0.0000  0.0000  0.0000
    1GRA      C 2903   4.821   7.429  12.500  0.0000  0.0000  0.0000
    1GRA      C 2904   4.963   7.429  12.500  0.0000  0.0000  0.0000
    1GRA      C 2905   5.247   7.429  12.500 -0.0000  0.0000  0.0000
    1GRA      C 2906   5.389   7.429  12.500 -0.0000  0.0000  0.0000
    1GRA      C 2907   5.672   7.429  12.500  0.0000  0.0000  0.0000
    1GRA      C 2908   5.814   7.429  12.500  0.0000  0.0000  0.0000
    1GRA      C 2909   6.098   7.429  12.500 -0.0000  0.0000  0.0000
    1GRA      C 2910   6.239   7.429  12.500  0.0000  0.0000  0.0000
    1GRA      C 2911   6.523   7.429  12.500 -0.0000  0.0000  0.0000
    1GRA      C 2912   6.665   7.429  12.500 -0.0000  0.0000  0.0000
    1GRA      C 2913   6.948   7.429  12.500  0.0000  0.0000  0.0000
    1GRA      C 2914   7.090   7.429  12.500  0.0000  0.0000  0.0000
    1GRA      C 2915   7.374   7.429  12.500 -0.0000  0.0000  0.0000
    1GRA      C 2916   7.516   7.429  12.500 -0.0000  0.0000  0.0000
    1GRA      C 2917   7.799   7.429  12.500  0.0000  0.0000  0.0000
    1GRA      C 2918   7.941   7.429  12.500  0.0000  0.0000  0.0000
    1GRA      C 2919   8.225   7.429  12.500 -0.0000  0.0000 -0.0000
    1GRA      C 2920   8.366   7.429  12.500  0.0000 -0.0000 -0.0000
    1GRA      C 2921   8.650   7.429  12.500 -0.0000  0.0000  0.0000
    1GRA      C 2922   8.792   7.429  12.500 -0.0000  0.0000  0.0000
    1GRA      C 2923   9.075   7.429  12.500  0.0000 -0.0000  0.0000
    1GRA      C 2924   9.217   7.429  12.500  0.0000  0.0000 -0.0000
    1GRA      C 2925   9.501   7.429  12.500 -0.0000  0.0000 -0.0000
    1GRA      C 2926   9.643   7.429  12.500 -0.0000 -0.0000  0.0000
    1GRA      C 2927   9.926   7.429  12.500  0.0000  0.0000  0.0000
    1GRA      C 2928  10.068   7.429  12.500  0.0000  0.0000  0.0000
    1GRA      C 2929   0.071   7.552  12.500  0.0000 -0.0000 -0.0000
    1GRA      C 2930   0.355   7.552  12.500 -0.0000 -0.0000 -0.0000
    1GRA      C 2931   0.496   7.552  12.500  0.0000 -0.0000  0.0000
    1GRA      C 2932   0.780   7.552  12.500 -0.0000 -0.0000  0.0000
    1GRA      C 2933   0.922   7.552  12.500  0.0000 -0.0000  0.0000
    1GRA      C 2934   1.205   7.552  12.500  0.0000 -0.0000 -0.0000
    1GRA      C 2935   1.347   7.552  12.500  0.0000 -0.0000 -0.0000
    1GRA      C 2936   1.631   7.552  12.500 -0.0000 -0.0000 -0.0000
    1GRA      C 2937   1.773   7.552  12.500  0.0000 -0.0000 -0.0000
    1GRA      C 2938   2.056   7.552  12.500 -0.0000 -0.0000  0.0000
    1GRA      C 2939   2.198   7.552  12.500  0.0000 -0.0000  0.0000
    1GRA      C 2940   2.482   7.552  12.500 -0.0000 -0.0000  0.0000
    1GRA      C 2941   2.624   7.552  12.500 -0.0000 -0.0000  0.0000
    1GRA      C 2942   2.907   7.552  12.500 -0.0000 -0.0000  0.0000
    1GRA      C 2943   3.049   7.552  12.500  0.0000 -0.0000  0.0000
    1GRA      C 2944   3.333   7.552  12.500 -0.0000 -0.0000  0.0000
    1GRA      C 2945   3.474   7.552  12.500  0.0000 -0.0000  0.0000
    1GRA      C 2946   3.758   7.552  12.500 -0.0000 -0.0000  0.0000
    1GRA      C 2947   3.900   7.552  12.500  0.0000 -0.0000  0.0000
    1GRA      C 2948   4.183   7.552  12.500 -0.0000 -0.0000  0.0000
    1GRA      C 2949   4.325   7.552  12.500  0.0000 -0.0000  0.0000
    1GRA      C 2950   4.609   7.552  12.500 -0.0000 -0.0000  0.0000
    1GRA      C 2951   4.751   7.552  12.500 -0.0000 -0.0000  0.0000
    1GRA      C 2952   5.034   7.552  12.500 -0.0000 -0.0000  0.0000
    1GRA      C 2953   5.176   7.552  12.500  0.0000 -0.0000  0.0000
    1GRA      C 2954   5.459   7.552  12.500  0.0000 -0.0000  0.0000
    1GRA      C 2955   5.601   7.552  12.500  0.0000 -0.0000  0.0000
    1GRA      C 2956   5.885   7.552  12.500 -0.0000 -0.0000  0.0000
    1GRA      C 2957   6.027   7.552  12.500  0.0000 -0.0000  0.0000
    1GRA      C 2958   6.310   7.552  12.500 -0.0000 -0.0000  0.0000
    1GRA      C 2959   6.452   7.552  12.500  0.0000 -0.0000  0.0000
    1GRA      C 2960   6.736   7.552  12.500 -0.0000 -0.0000  0.0000
    1GRA      C 2961   6.878   7.552  12.500 -0.0000 -0.0000  0.0000
    1GRA      C 2962   7.161   7.552  12.500 -0.0000 -0.0000  0.0000
    1GRA      C 2963   7.303   7.552  12.500  0.0000 -0.0000  0.0000
    1GRA      C 2964   7.587   7.552  12.500 -0.0000 -0.0000  0.0000
    1GRA      C 2965   7.728   7.552  12.500  0.0000 -0.0000  0.0000
    1GRA      C 2966   8.012   7.552  12.500 -0.0000 -0.0000  0.0000
    1GRA      C 2967   8.154   7.552  12.500  0.0000 -0.0000 -0.0000
    1GRA      C 2968   8.437   7.552  12.500 -0.0000 -0.0000 -0.0000
    1GRA      C 2969   8.579   7.552  12.500  0.0000 -0.0000 -0.0000
    1GRA      C 2970   8.863   7.552  12.500 -0.0000 -0.0000  0.0000
    1GRA      C 2971   9.005   7.552  12.500 -0.0000 -0.0000  0.0000
    1GRA      C 2972   9.288   7.552  12.500 -0.0000 -0.0000  0.0000
    1GRA      C 2973   9.430   7.552  12.500  0.0000 -0.0000  0.0000
    1GRA      C 2974   9.714   7.552  12.500 -0.0000 -0.0000  0.0000
    1GRA      C 2975   9.855   7.552  12.500  0.0000 -0.0000  0.0000
    1GRA      C 2976  10.139   7.552  12.500 -0.0000 -0.0000  0.0000
    1GRA      C 2977   0.142   7.675  12.500 -0.0000  0.0000 -0.0000
    1GRA      C 2978   0.284   7.675  12.500  0.0000  0.0000 -0.0000
    1GRA      C 2979   0.567   7.675  12.500 -0.0000  0.0000  0.0000
    1GRA      C 2980   0.709   7.675  12.500  0.0000  0.0000  0.0000
    1GRA      C 2981   0.993   7.675  12.500 -0.0000  0.0000 -0.0000
    1GRA      C 2982   1.135   7.675  12.500 -0.0000  0.0000 -0.0000
    1GRA      C 2983   1.418   7.675  12.500 -0.0000  0.0000  0.0000
    1GRA      C 2984   1.560   7.675  12.500  0.0000  0.0000  0.0000
    1GRA      C 2985   1.844   7.675  12.500 -0.0000  0.0000 -0.0000
    1GRA      C 2986   1.985   7.675  12.500  0.0000  0.0000 -0.0000
    1GRA      C 2987   2.269   7.675  12.500 -0.0000  0.0000 -0.0000
    1GRA      C 2988   2.411   7.675  12.500  0.0000  0.0000  0.0000
    1GRA      C 2989   2.694   7.675  12.500  0.0000  0.0000  0.0000
    1GRA      C 2990   2.836   7.675  12.500  0.0000  0.0000  0.0000
    1GRA      C 2991   3.120   7.675  12.500 -0.0000  0.0000  0.0000
    1GRA      C 2992   3.262   7.675  12.500  0.0000  0.0000  0.0000
    1GRA      C 2993   3.545   7.675  12.500 -0.0000  0.0000  0.0000
    1GRA      C 2994   3.687   7.675  12.500  0.0000  0.0000  0.0000
    1GRA      C 2995   3.971   7.675  12.500 -0.0000  0.0000  0.0000
    1GRA      C 2996   4.112   7.675  12.500  0.0000  0.0000  0.0000
    1GRA      C 2997   4.396   7.675  12.500 -0.0000  0.0000  0.0000
    1GRA      C 2998   4.538   7.675  12.500  0.0000  0.0000  0.0000
    1GRA      C 2999   4.821   7.675  12.500  0.0000  0.0000  0.0000
    1GRA      C 3000   4.963   7.675  12.500  0.0000  0.0000  0.0000
    1GRA      C 3001   5.247   7.675  12.500 -0.0000  0.0000  0.0000
    1GRA      C 3002   5.389   7.675  12.500 -0.0000  0.0000  0.0000
    1GRA      C 3003   5.672   7.675  12.500 -0.0000  0.0000  0.0000
    1GRA      C 3004   5.814   7.675  12.500  0.0000  0.0000  0.0000
    1GRA      C 3005   6.098   7.675  12.500 -0.0000  0.0000  0.0000
    1GRA      C 3006   6.239   7.675  12.500  0.0000  0.0000  0.0000
    1GRA      C 3007   6.523   7.675  12.500 -0.0000  0.0000  0.0000
    1GRA      C 3008   6.665   7.675  12.500  0.0000  0.0000  0.0000
    1GRA      C 3009   6.948   7.675  12.500  0.0000  0.0000  0.0000
    1GRA      C 3010   7.090   7.675  12.500  0.0000  0.0000  0.0000
    1GRA      C 3011   7.374   7.675  12.500 -0.0000  0.0000  0.0000
    1GRA      C 3012   7.516   7.675  12.500  0.0000  0.0000  0.0000
    1GRA      C 3013   7.799   7.675  12.500 -0.0000  0.0000  0.0000
    1GRA      C 3014   7.941   7.675  12.500  0.0000  0.0000  0.0000
    1GRA      C 3015   8.225   7.675  12.500 -0.0000  0.0000 -0.0000
    1GRA      C 3016   8.366   7.675  12.500  0.0000  0.0000 -0.0000
    1GRA      C 3017   8.650   7.675  12.500 -0.0000  0.0000 -0.0000
    1GRA      C 3018   8.792   7.675  12.500  0.0000  0.0000  0.0000
    1GRA      C 3019   9.075   7.675  12.500  0.0000  0.0000  0.0000
    1GRA      C 3020   9.217   7.675  12.500  0.0000  0.0000  0.0000
    1GRA      C 3021   9.501   7.675  12.500 -0.0000  0.0000  0.0000
    1GRA      C 3022   9.643   7.675  12.500  0.0000  0.0000  0.0000
    1GRA      C 3023   9.926   7.675  12.500 -0.0000  0.0000  0.0000
    1GRA      C 3024  10.068   7.675  12.500  0.0000  0.0000  0.0000
    1GRA      C 3025   0.071   7.797  12.500  0.0000 -0.0000  0.0000
    1GRA      C 3026   0.355   7.797  12.500 -0.0000 -0.0000  0.0000
    1GRA      C 3027   0.496   7.797  12.500  0.0000 -0.0000  0.0000
    1GRA      C 3028   0.780   7.797  12.500 -0.0000 -0.0000  0.0000
    1GRA      C 3029   0.922   7.797  12.500  0.0000 -0.0000 -0.0000
    1GRA      C 3030   1.205   7.797  12.500  0.0000 -0.0000 -0.0000
    1GRA      C 3031   1.347   7.797  12.500  0.0000 -0.0000  0.0000
    1GRA      C 3032   1.631   7.797  12.500 -0.0000 -0.0000  0.0000
    1GRA      C 3033   1.773   7.797  12.500  0.0000 -0.0000  0.0000
    1GRA      C 3034   2.056   7.797  12.500 -0.0000 -0.0000 -0.0000
    1GRA      C 3035   2.198   7.797  12.500  0.0000 -0.0000 -0.0000
    1GRA      C 3036   2.482   7.797  12.500 -0.0000 -0.0000 -0.0000
    1GRA      C 3037   2.624   7.797  12.500 -0.0000 -0.0000  0.0000
    1GRA      C 3038   2.907   7.797  12.500 -0.0000 -0.0000  0.0000
    1GRA      C 3039   3.049   7.797  12.500  0.0000 -0.0000  0.0000
    1GRA      C 3040   3.333   7.797  12.500 -0.0000 -0.0000  0.0000
    1GRA      C 3041   3.474   7.797  12.500  0.0000 -0.0000  0.0000
    1GRA      C 3042   3.758   7.797  12.500 -0.0000 -0.0000  0.0000
    1GRA      C 3043   3.900   7.797  12.500  0.0000 -0.0000  0.0000
    1GRA      C 3044   4.183   7.797  12.500 -0.0000 -0.0000  0.0000
    1GRA      C 3045   4.325   7.797  12.500  0.0000 -0.0000  0.0000
    1GRA      C 3046   4.609   7.797  12.500 -0.0000 -0.0000  0.0000
    1GRA      C 3047   4.751   7.797  12.500 -0.0000 -0.0000  0.0000
    1GRA      C 3048   5.034   7.797  12.500 -0.0000 -0.0000  0.0000
    1GRA      C 3049   5.176   7.797  12.500  0.0000 -0.0000  0.0000
    1GRA      C 3050   5.459   7.797  12.500  0.0000 -0.0000  0.0000
    1GRA      C 3051   5.601   7.797  12.500  0.0000 -0.0000  0.0000
    1GRA      C 3052   5.885   7.797  12.500 -0.0000 -0.0000  0.0000
    1GRA      C 3053   6.027   7.797  12.500  0.0000 -0.0000  0.0000
    1GRA      C 3054   6.310   7.797  12.500 -0.0000 -0.0000  0.0000
    1GRA      C 3055   6.452   7.797  12.500  0.0000 -0.0000  0.0000
    1GRA      C 3056   6.736   7.797  12.500 -0.0000 -0.0000  0.0000
    1GRA      C 3057   6.878   7.797  12.500 -0.0000 -0.0000  0.0000
    1GRA      C 3058   7.161   7.797  12.500 -0.0000 -0.0000  0.0000
    1GRA      C 3059   7.303   7.797  12.500  0.0000 -0.0000  0.0000
    1GRA      C 3060   7.587   7.797  12.500 -0.0000 -0.0000  0.0000
    1GRA      C 3061   7.728   7.797  12.500  0.0000 -0.0000  0.0000
    1GRA      C 3062   8.012   7.797  12.500 -0.0000 -0.0000  0.0000
    1GRA      C 3063   8.154   7.797  12.500  0.0000 -0.0000  0.0000
    1GRA      C 3064   8.437   7.797  12.500 -0.0000 -0.0000 -0.0000
    1GRA      C 3065   8.579   7.797  12.500  0.0000 -0.0000 -0.0000
    1GRA      C 3066   8.863   7.797  12.500 -0.0000 -0.0000  0.0000
    1GRA      C 3067   9.005   7.797  12.500 -0.0000 -0.0000  0.0000
    1GRA      C 3068   9.288   7.797  12.500 -0.0000 -0.0000  0.0000
    1GRA      C 3069   9.430   7.797  12.500  0.0000 -0.0000 -0.0000
    1GRA      C 3070   9.714   7.797  12.500 -0.0000 -0.0000  0.0000
    1GRA      C 3071   9.855   7.797  12.500  0.0000 -0.0000  0.0000
    1GRA      C 3072  10.139   7.797  12.500 -0.0000 -0.0000  0.0000
    1GRA      C 3073   0.142   7.920  12.500 -0.0000  0.0000  0.0000
    1GRA      C 3074   0.284   7.920  12.500  0.0000  0.0000  0.0000
    1GRA      C 3075   0.567   7.920  12.500 -0.0000  0.0000  0.0000
    1GRA      C 3076   0.709   7.920  12.500  0.0000  0.0000  0.0000
    1GRA      C 3077   0.993   7.920  12.500 -0.0000  0.0000 -0.0000
    1GRA      C 3078   1.135   7.920  12.500 -0.0000  0.0000 -0.0000
    1GRA      C 3079   1.418   7.920  12.500 -0.0000  0.0000  0.0000
    1GRA      C 3080   1.560   7.920  12.500  0.0000  0.0000  0.0000
    1GRA      C 3081   1.844   7.920  12.500 -0.0000  0.0000  0.0000
    1GRA      C 3082   1.985   7.920  12.500  0.0000  0.0000  0.0000
    1GRA      C 3083   2.269   7.920  12.500 -0.0000  0.0000 -0.0000
    1GRA      C 3084   2.411   7.920  12.500  0.0000  0.0000 -0.0000
    1GRA      C 3085   2.694   7.920  12.500  0.0000  0.0000  0.0000
    1GRA      C 3086   2.836   7.920  12.500  0.0000  0.0000  0.0000
    1GRA      C 3087   3.120   7.920  12.500 -0.0000  0.0000  0.0000
    1GRA      C 3088   3.262   7.920  12.500  0.0000  0.0000  0.0000
    1GRA      C 3089   3.545   7.920  12.500 -0.0000  0.0000  0.0000
    1GRA      C 3090   3.687   7.920  12.500  0.0000  0.0000  0.0000
    1GRA      C 3091   3.971   7.920  12.500 -0.0000  0.0000  0.0000
    1GRA      C 3092   4.112   7.920  12.500  0.0000  0.0000  0.0000
    1GRA      C 3093   4.396   7.920  12.500 -0.0000  0.0000  0.0000
    1GRA      C 3094   4.538   7.920  12.500  0.0000  0.0000  0.0000
    1GRA      C 3095   4.821   7.920  12.500  0.0000  0.0000  0.0000
    1GRA      C 3096   4.963   7.920  12.500  0.0000  0.0000  0.0000
    1GRA      C 3097   5.247   7.920  12.500 -0.0000  0.0000  0.0000
    1GRA      C 3098   5.389   7.920  12.500 -0.0000  0.0000  0.0000
    1GRA      C 3099   5.672   7.920  12.500 -0.0000  0.0000  0.0000
    1GRA      C 3100   5.814   7.920  12.500  0.0000  0.0000  0.0000
    1GRA      C 3101   6.098   7.920  12.500 -0.0000  0.0000  0.0000
    1GRA      C 3102   6.239   7.920  12.500  0.0000  0.0000  0.0000
    1GRA      C 3103   6.523   7.920  12.500 -0.0000  0.0000  0.0000
    1GRA      C 3104   6.665   7.920  12.500  0.0000  0.0000  0.0000
    1GRA      C 3105   6.948   7.920  12.500  0.0000  0.0000  0.0000
    1GRA      C 3106   7.090   7.920  12.500  0.0000  0.0000  0.0000
    1GRA      C 3107   7.374   7.920  12.500 -0.0000  0.0000  0.0000
    1GRA      C 3108   7.516   7.920  12.500  0.0000  0.0000  0.0000
    1GRA      C 3109   7.799   7.920  12.500 -0.0000  0.0000  0.0000
    1GRA      C 3110   7.941   7.920  12.500  0.0000  0.0000  0.0000
    1GRA      C 3111   8.225   7.920  12.500 -0.0000  0.0000  0.0000
    1GRA      C 3112   8.366   7.920  12.500  0.0000  0.0000  0.0000
    1GRA      C 3113   8.650   7.920  12.500 -0.0000  0.0000 -0.0000
    1GRA      C 3114   8.792   7.920  12.500  0.0000  0.0000  0.0000
    1GRA      C 3115   9.075   7.920  12.500  0.0000  0.0000  0.0000
    1GRA      C 3116   9.217   7.920  12.500  0.0000  0.0000  0.0000
    1GRA      C 3117   9.501   7.920  12.500 -0.0000  0.0000 -0.0000
    1GRA      C 3118   9.643   7.920  12.500  0.0000  0.0000 -0.0000
    1GRA      C 3119   9.926   7.920  12.500 -0.0000  0.0000  0.0000
    1GRA      C 3120  10.068   7.920  12.500  0.0000  0.0000  0.0000
    1GRA      C 3121   0.071   8.043  12.500  0.0000  0.0000  0.0000
    1GRA      C 3122   0.355   8.043  12.500 -0.0000  0.0000  0.0000
    1GRA      C 3123   0.496   8.043  12.500  0.0000  0.0000  0.0000
    1GRA      C 3124   0.780   8.043  12.500 -0.0000 -0.0000  0.0000
    1GRA      C 3125   0.922   8.043  12.500 -0.0000 -0.0000 -0.0000
    1GRA      C 3126   1.205   8.043  12.500  0.0000  0.0000 -0.0000
    1GRA      C 3127   1.347   8.043  12.500  0.0000  0.0000  0.0000
    1GRA      C 3128   1.631   8.043  12.500 -0.0000  0.0000  0.0000
    1GRA      C 3129   1.773   8.043  12.500 -0.0000  0.0000  0.0000
    1GRA      C 3130   2.056   8.043  12.500  0.0000 -0.0000  0.0000
    1GRA      C 3131   2.198   8.043  12.500  0.0000  0.0000 -0.0000
    1GRA      C 3132   2.482   8.043  12.500 -0.0000 -0.0000  0.0000
    1GRA      C 3133   2.624   8.043  12.500 -0.0000 -0.0000  0.0000
    1GRA      C 3134   2.907   8.043  12.500  0.0000 -0.0000  0.0000
    1GRA      C 3135   3.049   8.043  12.500  0.0000 -0.0000  0.0000
    1GRA      C 3136   3.333   8.043  12.500 -0.0000 -0.0000  0.0000
    1GRA      C 3137   3.474   8.043  12.500  0.0000 -0.0000  0.0000
    1GRA      C 3138   3.758   8.043  12.500 -0.0000 -0.0000  0.0000
    1GRA      C 3139   3.900   8.043  12.500 -0.0000 -0.0000  0.0000
    1GRA      C 3140   4.183   8.043  12.500  0.0000 -0.0000  0.0000
    1GRA      C 3141   4.325   8.043  12.500  0.0000 -0.0000  0.0000
    1GRA      C 3142   4.609   8.043  12.500 -0.0000 -0.0000  0.0000
    1GRA      C 3143   4.751   8.043  12.500 -0.0000 -0.0000  0.0000
    1GRA      C 3144   5.034   8.043  12.500  0.0000 -0.0000  0.0000
    1GRA      C 3145   5.176   8.043  12.500 -0.0000 -0.0000  0.0000
    1GRA      C 3146   5.459   8.043  12.500  0.0000 -0.0000  0.0000
    1GRA      C 3147   5.601   8.043  12.500  0.0000 -0.0000  0.0000
    1GRA      C 3148   5.885   8.043  12.500 -0.0000 -0.0000  0.0000
    1GRA      C 3149   6.027   8.043  12.500 -0.0000 -0.0000  0.0000
    1GRA      C 3150   6.310   8.043  12.500  0.0000 -0.0000  0.0000
    1GRA      C 3151   6.452   8.043  12.500  0.0000 -0.0000  0.0000
    1GRA      C 3152   6.736   8.043  12.500 -0.0000 -0.0000  0.0000
    1GRA      C 3153   6.878   8.043  12.500 -0.0000 -0.0000  0.0000
    1GRA      C 3154   7.161   8.043  12.500  0.0000 -0.0000  0.0000
    1GRA      C 3155   7.303   8.043  12.500  0.0000 -0.0000  0.0000
    1GRA      C 3156   7.587   8.043  12.500 -0.0000 -0.0000  0.0000
    1GRA      C 3157   7.728   8.043  12.500  0.0000 -0.0000  0.0000
    1GRA      C 3158   8.012   8.043  12.500 -0.0000 -0.0000  0.0000
    1GRA      C 3159   8.154   8.043  12.500 -0.0000 -0.0000  0.0000
    1GRA      C 3160   8.437   8.043  12.500  0.0000 -0.0000  0.0000
    1GRA      C 3161   8.579   8.043  12.500  0.0000 -0.0000 -0.0000
    1GRA      C 3162   8.863   8.043  12.500 -0.0000 -0.0000  0.0000
    1GRA      C 3163   9.005   8.043  12.500 -0.0000 -0.0000  0.0000
    1GRA      C 3164   9.288   8.043  12.500  0.0000  0.0000  0.0000
    1GRA      C 3165   9.430   8.043  12.500  0.0000  0.0000 -0.0000
    1GRA      C 3166   9.714   8.043  12.500 -0.0000 -0.0000 -0.0000
    1GRA      C 3167   9.855   8.043  12.500  0.0000  0.0000  0.0000
    1GRA      C 3168  10.139   8.043  12.500 -0.0000  0.0000  0.0000
    1GRA      C 3169   0.142   8.166  12.500 -0.0000 -0.0000  0.0000
    1GRA      C 3170   0.284   8.166  12.500  0.0000 -0.0000  0.0000
    1GRA      C 3171   0.567   8.166  12.500 -0.0000 -0.0000  0.0000
    1GRA      C 3172   0.709   8.166  12.500  0.0000 -0.0000  0.0000
    1GRA      C 3173   0.993   8.166  12.500 -0.0000 -0.0000 -0.0000
    1GRA      C 3174   1.135   8.166  12.500 -0.0000 -0.0000 -0.0000
    1GRA      C 3175   1.418   8.166  12.500 -0.0000 -0.0000  0.0000
    1GRA      C 3176   1.560   8.166  12.500  0.0000 -0.0000  0.0000
    1GRA      C 3177   1.844   8.166  12.500 -0.0000 -0.0000  0.0000
    1GRA      C 3178   1.985   8.166  12.500  0.0000 -0.0000  0.0000
    1GRA      C 3179   2.269   8.166  12.500 -0.0000 -0.0000  0.0000
    1GRA      C 3180   2.411   8.166  12.500  0.0000 -0.0000  0.0000
    1GRA      C 3181   2.694   8.166  12.500  0.0000 -0.0000  0.0000
    1GRA      C 3182   2.836   8.166  12.500  0.0000 -0.0000  0.0000
    1GRA      C 3183   3.120   8.166  12.500 -0.0000 -0.0000  0.0000
    1GRA      C 3184   3.262   8.166  12.500  0.0000 -0.0000  0.0000
    1GRA      C 3185   3.545   8.166  12.500 -0.0000 -0.0000  0.0000
    1GRA      C 3186   3.687   8.166  12.500  0.0000 -0.0000  0.0000
    1GRA      C 3187   3.971   8.166  12.500 -0.0000 -0.0000  0.0000
    1GRA      C 3188   4.112   8.166  12.500  0.0000 -0.0000  0.0000
    1GRA      C 3189   4.396   8.166  12.500 -0.0000 -0.0000  0.0000
    1GRA      C 3190   4.538   8.166  12.500  0.0000 -0.0000  0.0000
    1GRA      C 3191   4.821   8.166  12.500  0.0000 -0.0000  0.0000
    1GRA      C 3192   4.963   8.166  12.500  0.0000 -0.0000  0.0000
    1GRA      C 3193   5.247   8.166  12.500 -0.0000 -0.0000  0.0000
    1GRA      C 3194   5.389   8.166  12.500 -0.0000 -0.0000  0.0000
    1GRA      C 3195   5.672   8.166  12.500 -0.0000 -0.0000  0.0000
    1GRA      C 3196   5.814   8.166  12.500  0.0000 -0.0000  0.0000
    1GRA      C 3197   6.098   8.166  12.500 -0.0000 -0.0000  0.0000
    1GRA      C 3198   6.239   8.166  12.500  0.0000 -0.0000  0.0000
    1GRA      C 3199   6.523   8.166  12.500 -0.0000 -0.0000  0.0000
    1GRA      C 3200   6.665   8.166  12.500  0.0000 -0.0000  0.0000
    1GRA      C 3201   6.948   8.166  12.500  0.0000 -0.0000  0.0000
    1GRA      C 3202   7.090   8.166  12.500  0.0000 -0.0000  0.0000
    1GRA      C 3203   7.374   8.166  12.500 -0.0000 -0.0000  0.0000
    1GRA      C 3204   7.516   8.166  12.500  0.0000 -0.0000  0.0000
    1GRA      C 3205   7.799   8.166  12.500 -0.0000 -0.0000  0.0000
    1GRA      C 3206   7.941   8.166  12.500  0.0000 -0.0000  0.0000
    1GRA      C 3207   8.225   8.166  12.500 -0.0000 -0.0000  0.0000
    1GRA      C 3208   8.366   8.166  12.500  0.0000 -0.0000  0.0000
    1GRA      C 3209   8.650   8.166  12.500 -0.0000 -0.0000 -0.0000
    1GRA      C 3210   8.792   8.166  12.500  0.0000 -0.0000  0.0000
    1GRA      C 3211   9.075   8.166  12.500  0.0000 -0.0000  0.0000
    1GRA      C 3212   9.217   8.166  12.500  0.0000 -0.0000  0.0000
    1GRA      C 3213   9.501   8.166  12.500 -0.0000 -0.0000 -0.0000
    1GRA      C 3214   9.643   8.166  12.500  0.0000 -0.0000 -0.0000
    1GRA      C 3215   9.926   8.166  12.500 -0.0000 -0.0000  0.0000
    1GRA      C 3216  10.068   8.166  12.500  0.0000 -0.0000  0.0000
    1GRA      C 3217   0.071   8.289  12.500  0.0000  0.0000  0.0000
    1GRA      C 3218   0.355   8.289  12.500 -0.0000  0.0000 -0.0000
    1GRA      C 3219   0.496   8.289  12.500  0.0000  0.0000 -0.0000
    1GRA      C 3220   0.780   8.289  12.500 -0.0000  0.0000  0.0000
    1GRA      C 3221   0.922   8.289  12.500  0.0000  0.0000 -0.0000
    1GRA      C 3222   1.205   8.289  12.500  0.0000  0.0000 -0.0000
    1GRA      C 3223   1.347   8.289  12.500  0.0000  0.0000  0.0000
    1GRA      C 3224   1.631   8.289  12.500 -0.0000  0.0000  0.0000
    1GRA      C 3225   1.773   8.289  12.500  0.0000  0.0000  0.0000
    1GRA      C 3226   2.056   8.289  12.500 -0.0000  0.0000  0.0000
    1GRA      C 3227   2.198   8.289  12.500  0.0000  0.0000  0.0000
    1GRA      C 3228   2.482   8.289  12.500 -0.0000  0.0000  0.0000
    1GRA      C 3229   2.624   8.289  12.500 -0.0000  0.0000  0.0000
    1GRA      C 3230   2.907   8.289  12.500 -0.0000  0.0000  0.0000
    1GRA      C 3231   3.049   8.289  12.500  0.0000  0.0000  0.0000
    1GRA      C 3232   3.333   8.289  12.500 -0.0000  0.0000  0.0000
    1GRA      C 3233   3.474   8.289  12.500  0.0000  0.0000  0.0000
    1GRA      C 3234   3.758   8.289  12.500 -0.0000  0.0000  0.0000
    1GRA      C 3235   3.900   8.289  12.500  0.0000  0.0000  0.0000
    1GRA      C 3236   4.183   8.289  12.500 -0.0000  0.0000  0.0000
    1GRA      C 3237   4.325   8.289  12.500  0.0000  0.0000  0.0000
    1GRA      C 3238   4.609   8.289  12.500 -0.0000  0.0000  0.0000
    1GRA      C 3239   4.751   8.289  12.500 -0.0000  0.0000  0.0000
    1GRA      C 3240   5.034   8.289  12.500 -0.0000  0.0000  0.0000
    1GRA      C 3241   5.176   8.289  12.500  0.0000  0.0000  0.0000
    1GRA      C 3242   5.459   8.289  12.500  0.0000  0.0000  0.0000
    1GRA      C 3243   5.601   8.289  12.500  0.0000  0.0000  0.0000
    1GRA      C 3244   5.885   8.289  12.500 -0.0000  0.0000  0.0000
    1GRA      C 3245   6.027   8.289  12.500  0.0000  0.0000  0.0000
    1GRA      C 3246   6.310   8.289  12.500 -0.0000  0.0000  0.0000
    1GRA      C 3247   6.452   8.289  12.500  0.0000  0.0000  0.0000
    1GRA      C 3248   6.736   8.289  12.500 -0.0000  0.0000  0.0000
    1GRA      C 3249   6.878   8.289  12.500 -0.0000  0.0000  0.0000
    1GRA      C 3250   7.161   8.289  12.500 -0.0000  0.0000  0.0000
    1GRA      C 3251   7.303   8.289  12.500  0.0000  0.0000  0.0000
    1GRA      C 3252   7.587   8.289  12.500 -0.0000  0.0000  0.0000
    1GRA      C 3253   7.728   8.289  12.500  0.0000  0.0000  0.0000
    1GRA      C 3254   8.012   8.289  12.500 -0.0000  0.0000  0.0000
    1GRA      C 3255   8.154   8.289  12.500  0.0000  0.0000  0.0000
    1GRA      C 3256   8.437   8.289  12.500 -0.0000  0.0000 -0.0000
    1GRA      C 3257   8.579   8.289  12.500  0.0000  0.0000 -0.0000
    1GRA      C 3258   8.863   8.289  12.500 -0.0000  0.0000  0.0000
    1GRA      C 3259   9.005   8.289  12.500 -0.0000  0.0000  0.0000
    1GRA      C 3260   9.288   8.289  12.500 -0.0000  0.0000  0.0000
    1GRA      C 3261   9.430   8.289  12.500  0.0000  0.0000  0.0000
    1GRA      C 3262   9.714   8.289  12.500 -0.0000  0.0000 -0.0000
    1GRA      C 3263   9.855   8.289  12.500  0.0000  0.0000 -0.0000
    1GRA      C 3264  10.139   8.289  12.500 -0.0000  0.0000  0.0000
    1GRA      C 3265   0.142   8.411  12.500 -0.0000 -0.0000 -0.0000
    1GRA      C 3266   0.284   8.411  12.500  0.0000 -0.0000 -0.0000
    1GRA      C 3267   0.567   8.411  12.500 -0.0000 -0.0000 -0.0000
    1GRA      C 3268   0.709   8.411  12.500  0.0000 -0.0000  0.0000
    1GRA      C 3269   0.993   8.411  12.500 -0.0000 -0.0000 -0.0000
    1GRA      C 3270   1.135   8.411  12.500 -0.0000 -0.0000 -0.0000
    1GRA      C 3271   1.418   8.411  12.500 -0.0000 -0.0000 -0.0000
    1GRA      C 3272   1.560   8.411  12.500  0.0000 -0.0000 -0.0000
    1GRA      C 3273   1.844   8.411  12.500 -0.0000 -0.0000  0.0000
    1GRA      C 3274   1.985   8.411  12.500  0.0000 -0.0000  0.0000
    1GRA      C 3275   2.269   8.411  12.500 -0.0000 -0.0000  0.0000
    1GRA      C 3276   2.411   8.411  12.500  0.0000 -0.0000  0.0000
    1GRA      C 3277   2.694   8.411  12.500  0.0000 -0.0000  0.0000
    1GRA      C 3278   2.836   8.411  12.500  0.0000 -0.0000  0.0000
    1GRA      C 3279   3.120   8.411  12.500 -0.0000 -0.0000  0.0000
    1GRA      C 3280   3.262   8.411  12.500  0.0000 -0.0000  0.0000
    1GRA      C 3281   3.545   8.411  12.500 -0.0000 -0.0000  0.0000
    1GRA      C 3282   3.687   8.411  12.500  0.0000 -0.0000  0.0000
    1GRA      C 3283   3.971   8.411  12.500 -0.0000 -0.0000  0.0000
    1GRA      C 3284   4.112   8.411  12.500  0.0000 -0.0000  0.0000
    1GRA      C 3285   4.396   8.411  12.500 -0.0000 -0.0000  0.0000
    1GRA      C 3286   4.538   8.411  12.500  0.0000 -0.0000  0.0000
    1GRA      C 3287   4.821   8.411  12.500  0.0000 -0.0000  0.0000
    1GRA      C 3288   4.963   8.411  12.500  0.0000 -0.0000  0.0000
    1GRA      C 3289   5.247   8.411  12.500 -0.0000 -0.0000  0.0000
    1GRA      C 3290   5.389   8.411  12.500 -0.0000 -0.0000  0.0000
    1GRA      C 3291   5.672   8.411  12.500 -0.0000 -0.0000  0.0000
    1GRA      C 3292   5.814   8.411  12.500  0.0000 -0.0000  0.0000
    1GRA      C 3293   6.098   8.411  12.500 -0.0000 -0.0000  0.0000
    1GRA      C 3294   6.239   8.411  12.500  0.0000 -0.0000  0.0000
    1GRA      C 3295   6.523   8.411  12.500 -0.0000 -0.0000  0.0000
    1GRA      C 3296   6.665   8.411  12.500  0.0000 -0.0000  0.0000
    1GRA      C 3297   6.948   8.411  12.500  0.0000 -0.0000  0.0000
    1GRA      C 3298   7.090   8.411  12.500  0.0000 -0.0000  0.0000
    1GRA      C 3299   7.374   8.411  12.500 -0.0000 -0.0000  0.0000
    1GRA      C 3300   7.516   8.411  12.500  0.0000 -0.0000  0.0000
    1GRA      C 3301   7.799   8.411  12.500 -0.0000 -0.0000  0.0000
    1GRA      C 3302   7.941   8.411  12.500  0.0000 -0.0000  0.0000
    1GRA      C 3303   8.225   8.411  12.500 -0.0000 -0.0000  0.0000
    1GRA      C 3304   8.366   8.411  12.500  0.0000 -0.0000  0.0000
    1GRA      C 3305   8.650   8.411  12.500 -0.0000 -0.0000 -0.0000
    1GRA      C 3306   8.792   8.411  12.500  0.0000 -0.0000 -0.0000
    1GRA      C 3307   9.075   8.411  12.500  0.0000 -0.0000  0.0000
    1GRA      C 3308   9.217   8.411  12.500  0.0000 -0.0000  0.0000
    1GRA      C 3309   9.501   8.411  12.500 -0.0000 -0.0000  0.0000
    1GRA      C 3310   9.643   8.411  12.500  0.0000 -0.0000 -0.0000
    1GRA      C 3311   9.926   8.411  12.500 -0.0000 -0.0000  0.0000
    1GRA      C 3312  10.068   8.411  12.500  0.0000 -0.0000  0.0000
    1GRA      C 3313   0.071   8.534  12.500  0.0000  0.0000 -0.0000
    1GRA      C 3314   0.355   8.534  12.500 -0.0000  0.0000 -0.0000
    1GRA      C 3315   0.496   8.534  12.500  0.0000  0.0000 -0.0000
    1GRA      C 3316   0.780   8.534  12.500 -0.0000  0.0000  0.0000
    1GRA      C 3317   0.922   8.534  12.500  0.0000  0.0000  0.0000
    1GRA      C 3318   1.205   8.534  12.500  0.0000  0.0000 -0.0000
    1GRA      C 3319   1.347   8.534  12.500  0.0000  0.0000 -0.0000
    1GRA      C 3320   1.631   8.534  12.500 -0.0000  0.0000 -0.0000
    1GRA      C 3321   1.773   8.534  12.500  0.0000  0.0000  0.0000
    1GRA      C 3322   2.056   8.534  12.500 -0.0000  0.0000  0.0000
    1GRA      C 3323   2.198   8.534  12.500  0.0000  0.0000  0.0000
    1GRA      C 3324   2.482   8.534  12.500 -0.0000  0.0000  0.0000
    1GRA      C 3325   2.624   8.534  12.500 -0.0000  0.0000  0.0000
    1GRA      C 3326   2.907   8.534  12.500 -0.0000  0.0000  0.0000
    1GRA      C 3327   3.049   8.534  12.500  0.0000  0.0000  0.0000
    1GRA      C 3328   3.333   8.534  12.500 -0.0000  0.0000  0.0000
    1GRA      C 3329   3.474   8.534  12.500  0.0000  0.0000  0.0000
    1GRA      C 3330   3.758   8.534  12.500 -0.0000  0.0000  0.0000
    1GRA      C 3331   3.900   8.534  12.500  0.0000  0.0000  0.0000
    1GRA      C 3332   4.183   8.534  12.500 -0.0000  0.0000  0.0000
    1GRA      C 3333   4.325   8.534  12.500  0.0000  0.0000  0.0000
    1GRA      C 3334   4.609   8.534  12.500 -0.0000  0.0000  0.0000
    1GRA      C 3335   4.751   8.534  12.500 -0.0000  0.0000  0.0000
    1GRA      C 3336   5.034   8.534  12.500 -0.0000  0.0000  0.0000
    1GRA      C 3337   5.176   8.534  12.500  0.0000  0.0000  0.0000
    1GRA      C 3338   5.459   8.534  12.500  0.0000  0.0000  0.0000
    1GRA      C 3339   5.601   8.534  12.500  0.0000  0.0000  0.0000
    1GRA      C 3340   5.885   8.534  12.500 -0.0000  0.0000  0.0000
    1GRA      C 3341   6.027   8.534  12.500  0.0000  0.0000  0.0000
    1GRA      C 3342   6.310   8.534  12.500 -0.0000  0.0000  0.0000
    1GRA      C 3343   6.452   8.534  12.500  0.0000  0.0000  0.0000
    1GRA      C 3344   6.736   8.534  12.500 -0.0000  0.0000  0.0000
    1GRA      C 3345   6.878   8.534  12.500 -0.0000  0.0000  0.0000
    1GRA      C 3346   7.161   8.534  12.500 -0.0000  0.0000  0.0000
    1GRA      C 3347   7.303   8.534  12.500  0.0000  0.0000  0.0000
    1GRA      C 3348   7.587   8.534  12.500 -0.0000  0.0000  0.0000
    1GRA      C 3349   7.728   8.534  12.500  0.0000  0.0000  0.0000
    1GRA      C 3350   8.012   8.534  12.500 -0.0000  0.0000  0.0000
    1GRA      C 3351   8.154   8.534  12.500  0.0000  0.0000  0.0000
    1GRA      C 3352   8.437   8.534  12.500 -0.0000  0.0000  0.0000
    1GRA      C 3353   8.579   8.534  12.500  0.0000  0.0000 -0.0000
    1GRA      C 3354   8.863   8.534  12.500 -0.0000  0.0000 -0.0000
    1GRA      C 3355   9.005   8.534  12.500 -0.0000  0.0000  0.0000
    1GRA      C 3356   9.288   8.534  12.500 -0.0000  0.0000  0.0000
    1GRA      C 3357   9.430   8.534  12.500  0.0000  0.0000  0.0000
    1GRA      C 3358   9.714   8.534  12.500 -0.0000  0.0000  0.0000
    1GRA      C 3359   9.855   8.534  12.500  0.0000  0.0000  0.0000
    1GRA      C 3360  10.139   8.534  12.500 -0.0000  0.0000  0.0000
    1GRA      C 3361   0.142   8.657  12.500  0.0000  0.0000 -0.0000
    1GRA      C 3362   0.284   8.657  12.500 -0.0000  0.0000 -0.0000
    1GRA      C 3363   0.567   8.657  12.500  0.0000  0.0000  0.0000
    1GRA      C 3364   0.709   8.657  12.500  0.0000 -0.0000  0.0000
    1GRA      C 3365   0.993   8.657  12.500 -0.0000 -0.0000  0.0000
    1GRA      C 3366   1.135   8.657  12.500 -0.0000 -0.0000  0.0000
    1GRA      C 3367   1.418   8.657  12.500  0.0000 -0.0000 -0.0000
    1GRA      C 3368   1.560   8.657  12.500  0.0000  0.0000 -0.0000
    1GRA      C 3369   1.844   8.657  12.500 -0.0000  0.0000 -0.0000
    1GRA      C 3370   1.985   8.657  12.500  0.0000  0.0000 -0.0000
    1GRA      C 3371   2.269   8.657  12.500 -0.0000  0.0000 -0.0000
    1GRA      C 3372   2.411   8.657  12.500 -0.0000  0.0000  0.0000
    1GRA      C 3373   2.694   8.657  12.500  0.0000  0.0000  0.0000
    1GRA      C 3374   2.836   8.657  12.500  0.0000  0.0000  0.0000
    1GRA      C 3375   3.120   8.657  12.500 -0.0000  0.0000  0.0000
    1GRA      C 3376   3.262   8.657  12.500 -0.0000  0.0000  0.0000
    1GRA      C 3377   3.545   8.657  12.500  0.0000  0.0000  0.0000
    1GRA      C 3378   3.687   8.657  12.500  0.0000  0.0000  0.0000
    1GRA      C 3379   3.971   8.657  12.500 -0.0000  0.0000  0.0000
    1GRA      C 3380   4.112   8.657  12.500  0.0000  0.0000  0.0000
    1GRA      C 3381   4.396   8.657  12.500 -0.0000  0.0000  0.0000
    1GRA      C 3382   4.538   8.657  12.500 -0.0000  0.0000  0.0000
    1GRA      C 3383   4.821   8.657  12.500  0.0000  0.0000  0.0000
    1GRA      C 3384   4.963   8.657  12.500  0.0000  0.0000  0.0000
    1GRA      C 3385   5.247   8.657  12.500 -0.0000  0.0000  0.0000
    1GRA      C 3386   5.389   8.657  12.500 -0.0000  0.0000  0.0000
    1GRA      C 3387   5.672   8.657  12.500  0.0000  0.0000  0.0000
    1GRA      C 3388   5.814   8.657  12.500  0.0000  0.0000  0.0000
    1GRA      C 3389   6.098   8.657  12.500 -0.0000  0.0000  0.0000
    1GRA      C 3390   6.239   8.657  12.500  0.0000  0.0000  0.0000
    1GRA      C 3391   6.523   8.657  12.500 -0.0000  0.0000  0.0000
    1GRA      C 3392   6.665   8.657  12.500 -0.0000  0.0000  0.0000
    1GRA      C 3393   6.948   8.657  12.500  0.0000  0.0000  0.0000
    1GRA      C 3394   7.090   8.657  12.500  0.0000  0.0000  0.0000
    1GRA      C 3395   7.374   8.657  12.500 -0.0000  0.0000  0.0000
    1GRA      C 3396   7.516   8.657  12.500 -0.0000  0.0000  0.0000
    1GRA      C 3397   7.799   8.657  12.500  0.0000  0.0000  0.0000
    1GRA      C 3398   7.941   8.657  12.500  0.0000  0.0000  0.0000
    1GRA      C 3399   8.225   8.657  12.500 -0.0000  0.0000  0.0000
    1GRA      C 3400   8.366   8.657  12.500  0.0000  0.0000  0.0000
    1GRA      C 3401   8.650   8.657  12.500 -0.0000  0.0000 -0.0000
    1GRA      C 3402   8.792   8.657  12.500 -0.0000  0.0000 -0.0000
    1GRA      C 3403   9.075   8.657  12.500  0.0000  0.0000  0.0000
    1GRA      C 3404   9.217   8.657  12.500  0.0000 -0.0000  0.0000
    1GRA      C 3405   9.501   8.657  12.500 -0.0000 -0.0000  0.0000
    1GRA      C 3406   9.643   8.657  12.500 -0.0000 -0.0000  0.0000
    1GRA      C 3407   9.926   8.657  12.500  0.0000 -0.0000  0.0000
    1GRA      C 3408  10.068   8.657  12.500  0.0000 -0.0000  0.0000
    1GRA      C 3409   0.071   8.780  12.500  0.0000 -0.0000 -0.0000
    1GRA      C 3410   0.355   8.780  12.500 -0.0000 -0.0000 -0.0000
    1GRA      C 3411   0.496   8.780  12.500  0.0000 -0.0000  0.0000
    1GRA      C 3412   0.780   8.780  12.500 -0.0000 -0.0000  0.0000
    1GRA      C 3413   0.922   8.780  12.500  0.0000 -0.0000  0.0000
    1GRA      C 3414   1.205   8.780  12.500  0.0000 -0.0000 -0.0000
    1GRA      C 3415   1.347   8.780  12.500  0.0000 -0.0000 -0.0000
    1GRA      C 3416   1.631   8.780  12.500 -0.0000 -0.0000 -0.0000
    1GRA      C 3417   1.773   8.780  12.500  0.0000 -0.0000  0.0000
    1GRA      C 3418   2.056   8.780  12.500 -0.0000 -0.0000 -0.0000
    1GRA      C 3419   2.198   8.780  12.500  0.0000 -0.0000 -0.0000
    1GRA      C 3420   2.482   8.780  12.500 -0.0000 -0.0000 -0.0000
    1GRA      C 3421   2.624   8.780  12.500 -0.0000 -0.0000 -0.0000
    1GRA      C 3422   2.907   8.780  12.500 -0.0000 -0.0000  0.0000
    1GRA      C 3423   3.049   8.780  12.500  0.0000 -0.0000  0.0000
    1GRA      C 3424   3.333   8.780  12.500 -0.0000 -0.0000  0.0000
    1GRA      C 3425   3.474   8.780  12.500  0.0000 -0.0000  0.0000
    1GRA      C 3426   3.758   8.780  12.500 -0.0000 -0.0000  0.0000
    1GRA      C 3427   3.900   8.780  12.500  0.0000 -0.0000  0.0000
    1GRA      C 3428   4.183   8.780  12.500 -0.0000 -0.0000  0.0000
    1GRA      C 3429   4.325   8.780  12.500  0.0000 -0.0000  0.0000
    1GRA      C 3430   4.609   8.780  12.500 -0.0000 -0.0000  0.0000
    1GRA      C 3431   4.751   8.780  12.500 -0.0000 -0.0000  0.0000
    1GRA      C 3432   5.034   8.780  12.500 -0.0000 -0.0000  0.0000
    1GRA      C 3433   5.176   8.780  12.500  0.0000 -0.0000  0.0000
    1GRA      C 3434   5.459   8.780  12.500  0.0000 -0.0000  0.0000
    1GRA      C 3435   5.601   8.780  12.500  0.0000 -0.0000  0.0000
    1GRA      C 3436   5.885   8.780  12.500 -0.0000 -0.0000  0.0000
    1GRA      C 3437   6.027   8.780  12.500  0.0000 -0.0000  0.0000
    1GRA      C 3438   6.310   8.780  12.500 -0.0000 -0.0000  0.0000
    1GRA      C 3439   6.452   8.780  12.500  0.0000 -0.0000  0.0000
    1GRA      C 3440   6.736   8.780  12.500 -0.0000 -0.0000  0.0000
    1GRA      C 3441   6.878   8.780  12.500 -0.0000 -0.0000  0.0000
    1GRA      C 3442   7.161   8.780  12.500 -0.0000 -0.0000  0.0000
    1GRA      C 3443   7.303   8.780  12.500  0.0000 -0.0000  0.0000
    1GRA      C 3444   7.587   8.780  12.500 -0.0000 -0.0000  0.0000
    1GRA      C 3445   7.728   8.780  12.500  0.0000 -0.0000  0.0000
    1GRA      C 3446   8.012   8.780  12.500 -0.0000 -0.0000  0.0000
    1GRA      C 3447   8.154   8.780  12.500  0.0000 -0.0000  0.0000
    1GRA      C 3448   8.437   8.780  12.500 -0.0000 -0.0000  0.0000
    1GRA      C 3449   8.579   8.780  12.500  0.0000 -0.0000  0.0000
    1GRA      C 3450   8.863   8.780  12.500 -0.0000 -0.0000 -0.0000
    1GRA      C 3451   9.005   8.780  12.500 -0.0000 -0.0000  0.0000
    1GRA      C 3452   9.288   8.780  12.500 -0.0000 -0.0000 -0.0000
    1GRA      C 3453   9.430   8.780  12.500  0.0000 -0.0000 -0.0000
    1GRA      C 3454   9.714   8.780  12.500 -0.0000 -0.0000  0.0000
    1GRA      C 3455   9.855   8.780  12.500  0.0000 -0.0000  0.0000
    1GRA      C 3456  10.139   8.780  12.500 -0.0000 -0.0000  0.0000
    1GRA      C 3457   0.142   8.903  12.500 -0.0000  0.0000  0.0000
    1GRA      C 3458   0.284   8.903  12.500  0.0000  0.0000  0.0000
    1GRA      C 3459   0.567   8.903  12.500 -0.0000  0.0000  0.0000
    1GRA      C 3460   0.709   8.903  12.500  0.0000  0.0000  0.0000
    1GRA      C 3461   0.993   8.903  12.500 -0.0000  0.0000  0.0000
    1GRA      C 3462   1.135   8.903  12.500 -0.0000  0.0000  0.0000
    1GRA      C 3463   1.418   8.903  12.500 -0.0000  0.0000 -0.0000
    1GRA      C 3464   1.560   8.903  12.500  0.0000  0.0000 -0.0000
    1GRA      C 3465   1.844   8.903  12.500 -0.0000  0.0000  0.0000
    1GRA      C 3466   1.985   8.903  12.500  0.0000  0.0000  0.0000
    1GRA      C 3467   2.269   8.903  12.500 -0.0000  0.0000 -0.0000
    1GRA      C 3468   2.411   8.903  12.500  0.0000  0.0000 -0.0000
    1GRA      C 3469   2.694   8.903  12.500  0.0000  0.0000  0.0000
    1GRA      C 3470   2.836   8.903  12.500  0.0000  0.0000  0.0000
    1GRA      C 3471   3.120   8.903  12.500 -0.0000  0.0000  0.0000
    1GRA      C 3472   3.262   8.903  12.500  0.0000  0.0000  0.0000
    1GRA      C 3473   3.545   8.903  12.500 -0.0000  0.0000  0.0000
    1GRA      C 3474   3.687   8.903  12.500  0.0000  0.0000  0.0000
    1GRA      C 3475   3.971   8.903  12.500 -0.0000  0.0000  0.0000
    1GRA      C 3476   4.112   8.903  12.500  0.0000  0.0000  0.0000
    1GRA      C 3477   4.396   8.903  12.500 -0.0000  0.0000  0.0000
    1GRA      C 3478   4.538   8.903  12.500  0.0000  0.0000  0.0000
    1GRA      C 3479   4.821   8.903  12.500  0.0000  0.0000  0.0000
    1GRA      C 3480   4.963   8.903  12.500  0.0000  0.0000  0.0000
    1GRA      C 3481   5.247   8.903  12.500 -0.0000  0.0000  0.0000
    1GRA      C 3482   5.389   8.903  12.500 -0.0000  0.0000  0.0000
    1GRA      C 3483   5.672   8.903  12.500 -0.0000  0.0000  0.0000
    1GRA      C 3484   5.814   8.903  12.500  0.0000  0.0000  0.0000
    1GRA      C 3485   6.098   8.903  12.500 -0.0000  0.0000  0.0000
    1GRA      C 3486   6.239   8.903  12.500  0.0000  0.0000  0.0000
    1GRA      C 3487   6.523   8.903  12.500 -0.0000  0.0000  0.0000
    1GRA      C 3488   6.665   8.903  12.500  0.0000  0.0000  0.0000
    1GRA      C 3489   6.948   8.903  12.500  0.0000  0.0000  0.0000
    1GRA      C 3490   7.090   8.903  12.500  0.0000  0.0000  0.0000
    1GRA      C 3491   7.374   8.903  12.500 -0.0000  0.0000  0.0000
    1GRA      C 3492   7.516   8.903  12.500  0.0000  0.0000  0.0000
    1GRA      C 3493   7.799   8.903  12.500 -0.0000  0.0000  0.0000
    1GRA      C 3494   7.941   8.903  12.500  0.0000  0.0000  0.0000
    1GRA      C 3495   8.225   8.903  12.500 -0.0000  0.0000  0.0000
    1GRA      C 3496   8.366   8.903  12.500  0.0000  0.0000  0.0000
    1GRA      C 3497   8.650   8.903  12.500 -0.0000  0.0000  0.0000
    1GRA      C 3498   8.792   8.903  12.500  0.0000  0.0000  0.0000
    1GRA      C 3499   9.075   8.903  12.500  0.0000  0.0000  0.0000
    1GRA      C 3500   9.217   8.903  12.500  0.0000  0.0000 -0.0000
    1GRA      C 3501   9.501   8.903  12.500 -0.0000  0.0000 -0.0000
    1GRA      C 3502   9.643   8.903  12.500  0.0000  0.0000 -0.0000
    1GRA      C 3503   9.926   8.903  12.500 -0.0000  0.0000  0.0000
    1GRA      C 3504  10.068   8.903  12.500  0.0000  0.0000  0.0000
    1GRA      C 3505   0.071   9.025  12.500  0.0000 -0.0000  0.0000
    1GRA      C 3506   0.355   9.025  12.500 -0.0000 -0.0000  0.0000
    1GRA      C 3507   0.496   9.025  12.500  0.0000 -0.0000 -0.0000
    1GRA      C 3508   0.780   9.025  12.500 -0.0000 -0.0000 -0.0000
    1GRA      C 3509   0.922   9.025  12.500  0.0000 -0.0000 -0.0000
    1GRA      C 3510   1.205   9.025  12.500  0.0000 -0.0000  0.0000
    1GRA      C 3511   1.347   9.025  12.500  0.0000 -0.0000  0.0000
    1GRA      C 3512   1.631   9.025  12.500 -0.0000 -0.0000  0.0000
    1GRA      C 3513   1.773   9.025  12.500  0.0000 -0.0000  0.0000
    1GRA      C 3514   2.056   9.025  12.500 -0.0000 -0.0000  0.0000
    1GRA      C 3515   2.198   9.025  12.500  0.0000 -0.0000  0.0000
    1GRA      C 3516   2.482   9.025  12.500 -0.0000 -0.0000 -0.0000
    1GRA      C 3517   2.624   9.025  12.500 -0.0000 -0.0000  0.0000
    1GRA      C 3518   2.907   9.025  12.500 -0.0000 -0.0000  0.0000
    1GRA      C 3519   3.049   9.025  12.500  0.0000 -0.0000  0.0000
    1GRA      C 3520   3.333   9.025  12.500 -0.0000 -0.0000  0.0000
    1GRA      C 3521   3.474   9.025  12.500  0.0000 -0.0000  0.0000
    1GRA      C 3522   3.758   9.025  12.500 -0.0000 -0.0000  0.0000
    1GRA      C 3523   3.900   9.025  12.500  0.0000 -0.0000  0.0000
    1GRA      C 3524   4.183   9.025  12.500 -0.0000 -0.0000  0.0000
    1GRA      C 3525   4.325   9.025  12.500  0.0000 -0.0000  0.0000
    1GRA      C 3526   4.609   9.025  12.500 -0.0000 -0.0000  0.0000
    1GRA      C 3527   4.751   9.025  12.500 -0.0000 -0.0000  0.0000
    1GRA      C 3528   5.034   9.025  12.500 -0.0000 -0.0000  0.0000
    1GRA      C 3529   5.176   9.025  12.500  0.0000 -0.0000  0.0000
    1GRA      C 3530   5.459   9.025  12.500  0.0000 -0.0000  0.0000
    1GRA      C 3531   5.601   9.025  12.500  0.0000 -0.0000  0.0000
    1GRA      C 3532   5.885   9.025  12.500 -0.0000 -0.0000  0.0000
    1GRA      C 3533   6.027   9.025  12.500  0.0000 -0.0000  0.0000
    1GRA      C 3534   6.310   9.025  12.500 -0.0000 -0.0000  0.0000
    1GRA      C 3535   6.452   9.025  12.500  0.0000 -0.0000  0.0000
    1GRA      C 3536   6.736   9.025  12.500 -0.0000 -0.0000  0.0000
    1GRA      C 3537   6.878   9.025  12.500 -0.0000 -0.0000  0.0000
    1GRA      C 3538   7.161   9.025  12.500 -0.0000 -0.0000  0.0000
    1GRA      C 3539   7.303   9.025  12.500  0.0000 -0.0000  0.0000
    1GRA      C 3540   7.587   9.025  12.500 -0.0000 -0.0000  0.0000
    1GRA      C 3541   7.728   9.025  12.500  0.0000 -0.0000  0.0000
    1GRA      C 3542   8.012   9.025  12.500 -0.0000 -0.0000  0.0000
    1GRA      C 3543   8.154   9.025  12.500  0.0000 -0.0000  0.0000
    1GRA      C 3544   8.437   9.025  12.500 -0.0000 -0.0000  0.0000
    1GRA      C 3545   8.579   9.025  12.500  0.0000 -0.0000  0.0000
    1GRA      C 3546   8.863   9.025  12.500 -0.0000 -0.0000  0.0000
    1GRA      C 3547   9.005   9.025  12.500 -0.0000 -0.0000  0.0000
    1GRA      C 3548   9.288   9.025  12.500 -0.0000 -0.0000 -0.0000
    1GRA      C 3549   9.430   9.025  12.500  0.0000 -0.0000 -0.0000
    1GRA      C 3550   9.714   9.025  12.500 -0.0000 -0.0000 -0.0000
    1GRA      C 3551   9.855   9.025  12.500  0.0000 -0.0000 -0.0000
    1GRA      C 3552  10.139   9.025  12.500 -0.0000 -0.0000  0.0000
    1GRA      C 3553   0.142   9.148  12.500 -0.0000  0.0000  0.0000
    1GRA      C 3554   0.284   9.148  12.500  0.0000  0.0000  0.0000
    1GRA      C 3555   0.567   9.148  12.500 -0.0000  0.0000 -0.0000
    1GRA      C 3556   0.709   9.148  12.500  0.0000  0.0000 -0.0000
    1GRA      C 3557   0.993   9.148  12.500 -0.0000  0.0000 -0.0000
    1GRA      C 3558   1.135   9.148  12.500 -0.0000  0.0000 -0.0000
    1GRA      C 3559   1.418   9.148  12.500 -0.0000  0.0000  0.0000
    1GRA      C 3560   1.560   9.148  12.500  0.0000  0.0000  0.0000
    1GRA      C 3561   1.844   9.148  12.500 -0.0000  0.0000  0.0000
    1GRA      C 3562   1.985   9.148  12.500  0.0000  0.0000  0.0000
    1GRA      C 3563   2.269   9.148  12.500 -0.0000  0.0000  0.0000
    1GRA      C 3564   2.411   9.148  12.500  0.0000  0.0000  0.0000
    1GRA      C 3565   2.694   9.148  12.500  0.0000  0.0000  0.0000
    1GRA      C 3566   2.836   9.148  12.500  0.0000  0.0000  0.0000
    1GRA      C 3567   3.120   9.148  12.500 -0.0000  0.0000  0.0000
    1GRA      C 3568   3.262   9.148  12.500  0.0000  0.0000  0.0000
    1GRA      C 3569   3.545   9.148  12.500 -0.0000  0.0000  0.0000
    1GRA      C 3570   3.687   9.148  12.500  0.0000  0.0000  0.0000
    1GRA      C 3571   3.971   9.148  12.500 -0.0000  0.0000  0.0000
    1GRA      C 3572   4.112   9.148  12.500  0.0000  0.0000  0.0000
    1GRA      C 3573   4.396   9.148  12.500 -0.0000  0.0000  0.0000
    1GRA      C 3574   4.538   9.148  12.500  0.0000  0.0000  0.0000
    1GRA      C 3575   4.821   9.148  12.500  0.0000  0.0000  0.0000
    1GRA      C 3576   4.963   9.148  12.500  0.0000  0.0000  0.0000
    1GRA      C 3577   5.247   9.148  12.500 -0.0000  0.0000  0.0000
    1GRA      C 3578   5.389   9.148  12.500 -0.0000  0.0000  0.0000
    1GRA      C 3579   5.672   9.148  12.500 -0.0000  0.0000  0.0000
    1GRA      C 3580   5.814   9.148  12.500  0.0000  0.0000  0.0000
    1GRA      C 3581   6.098   9.148  12.500 -0.0000  0.0000  0.0000
    1GRA      C 3582   6.239   9.148  12.500  0.0000  0.0000  0.0000
    1GRA      C 3583   6.523   9.148  12.500 -0.0000  0.0000  0.0000
    1GRA      C 3584   6.665   9.148  12.500  0.0000  0.0000  0.0000
    1GRA      C 3585   6.948   9.148  12.500  0.0000  0.0000  0.0000
    1GRA      C 3586   7.090   9.148  12.500  0.0000  0.0000  0.0000
    1GRA      C 3587   7.374   9.148  12.500 -0.0000  0.0000  0.0000
    1GRA      C 3588   7.516   9.148  12.500  0.0000  0.0000  0.0000
    1GRA      C 3589   7.799   9.148  12.500 -0.0000  0.0000  0.0000
    1GRA      C 3590   7.941   9.148  12.500  0.0000  0.0000  0.0000
    1GRA      C 3591   8.225   9.148  12.500 -0.0000  0.0000  0.0000
    1GRA      C 3592   8.366   9.148  12.500  0.0000  0.0000  0.0000
    1GRA      C 3593   8.650   9.148  12.500 -0.0000  0.0000  0.0000
    1GRA      C 3594   8.792   9.148  12.500  0.0000  0.0000  0.0000
    1GRA      C 3595   9.075   9.148  12.500  0.0000  0.0000  0.0000
    1GRA      C 3596   9.217   9.148  12.500  0.0000  0.0000  0.0000
    1GRA      C 3597   9.501   9.148  12.500 -0.0000  0.0000 -0.0000
    1GRA      C 3598   9.643   9.148  12.500  0.0000  0.0000 -0.0000
    1GRA      C 3599   9.926   9.148  12.500 -0.0000  0.0000 -0.0000
    1GRA      C 3600  10.068   9.148  12.500  0.0000  0.0000 -0.0000
    1GRA      C 3601   0.071   9.271  12.500  0.0000 -0.0000  0.0000
    1GRA      C 3602   0.355   9.271  12.500 -0.0000 -0.0000  0.0000
    1GRA      C 3603   0.496   9.271  12.500  0.0000 -0.0000  0.0000
    1GRA      C 3604   0.780   9.271  12.500 -0.0000 -0.0000 -0.0000
    1GRA      C 3605   0.922   9.271  12.500 -0.0000 -0.0000 -0.0000
    1GRA      C 3606   1.205   9.271  12.500  0.0000 -0.0000 -0.0000
    1GRA      C 3607   1.347   9.271  12.500  0.0000 -0.0000  0.0000
    1GRA      C 3608   1.631   9.271  12.500 -0.0000 -0.0000  0.0000
    1GRA      C 3609   1.773   9.271  12.500 -0.0000 -0.0000  0.0000
    1GRA      C 3610   2.056   9.271  12.500  0.0000 -0.0000  0.0000
    1GRA      C 3611   2.198   9.271  12.500  0.0000  0.0000  0.0000
    1GRA      C 3612   2.482   9.271  12.500 -0.0000  0.0000  0.0000
    1GRA      C 3613   2.624   9.271  12.500 -0.0000  0.0000  0.0000
    1GRA      C 3614   2.907   9.271  12.500  0.0000  0.0000  0.0000
    1GRA      C 3615   3.049   9.271  12.500  0.0000  0.0000  0.0000
    1GRA      C 3616   3.333   9.271  12.500 -0.0000  0.0000  0.0000
    1GRA      C 3617   3.474   9.271  12.500  0.0000  0.0000  0.0000
    1GRA      C 3618   3.758   9.271  12.500 -0.0000  0.0000  0.0000
    1GRA      C 3619   3.900   9.271  12.500 -0.0000  0.0000  0.0000
    1GRA      C 3620   4.183   9.271  12.500  0.0000  0.0000  0.0000
    1GRA      C 3621   4.325   9.271  12.500  0.0000  0.0000  0.0000
    1GRA      C 3622   4.609   9.271  12.500 -0.0000  0.0000  0.0000
    1GRA      C 3623   4.751   9.271  12.500 -0.0000  0.0000  0.0000
    1GRA      C 3624   5.034   9.271  12.500  0.0000  0.0000  0.0000
    1GRA      C 3625   5.176   9.271  12.500 -0.0000  0.0000  0.0000
    1GRA      C 3626   5.459   9.271  12.500  0.0000  0.0000  0.0000
    1GRA      C 3627   5.601   9.271  12.500  0.0000  0.0000  0.0000
    1GRA      C 3628   5.885   9.271  12.500 -0.0000  0.0000  0.0000
    1GRA      C 3629   6.027   9.271  12.500 -0.0000  0.0000  0.0000
    1GRA      C 3630   6.310   9.271  12.500  0.0000  0.0000  0.0000
    1GRA      C 3631   6.452   9.271  12.500  0.0000  0.0000  0.0000
    1GRA      C 3632   6.736   9.271  12.500 -0.0000  0.0000  0.0000
    1GRA      C 3633   6.878   9.271  12.500 -0.0000  0.0000  0.0000
    1GRA      C 3634   7.161   9.271  12.500  0.0000  0.0000  0.0000
    1GRA      C 3635   7.303   9.271  12.500  0.0000  0.0000  0.0000
    1GRA      C 3636   7.587   9.271  12.500 -0.0000 -0.0000  0.0000
    1GRA      C 3637   7.728   9.271  12.500  0.0000 -0.0000  0.0000
    1GRA      C 3638   8.012   9.271  12.500 -0.0000 -0.0000  0.0000
    1GRA      C 3639   8.154   9.271  12.500 -0.0000 -0.0000  0.0000
    1GRA      C 3640   8.437   9.271  12.500  0.0000 -0.0000  0.0000
    1GRA      C 3641   8.579   9.271  12.500  0.0000 -0.0000  0.0000
    1GRA      C 3642   8.863   9.271  12.500 -0.0000 -0.0000  0.0000
    1GRA      C 3643   9.005   9.271  12.500 -0.0000 -0.0000  0.0000
    1GRA      C 3644   9.288   9.271  12.500  0.0000 -0.0000  0.0000
    1GRA      C 3645   9.430   9.271  12.500  0.0000 -0.0000  0.0000
    1GRA      C 3646   9.714   9.271  12.500 -0.0000 -0.0000 -0.0000
    1GRA      C 3647   9.855   9.271  12.500  0.0000 -0.0000 -0.0000
    1GRA      C 3648  10.139   9.271  12.500 -0.0000 -0.0000 -0.0000
    1GRA      C 3649   0.142   9.394  12.500 -0.0000 -0.0000  0.0000
    1GRA      C 3650   0.284   9.394  12.500  0.0000 -0.0000  0.0000
    1GRA      C 3651   0.567   9.394  12.500 -0.0000 -0.0000  0.0000
    1GRA      C 3652   0.709   9.394  12.500  0.0000 -0.0000 -0.0000
    1GRA      C 3653   0.993   9.394  12.500 -0.0000 -0.0000 -0.0000
    1GRA      C 3654   1.135   9.394  12.500 -0.0000 -0.0000 -0.0000
    1GRA      C 3655   1.418   9.394  12.500 -0.0000 -0.0000 -0.0000
    1GRA      C 3656   1.560   9.394  12.500  0.0000 -0.0000 -0.0000
    1GRA      C 3657   1.844   9.394  12.500 -0.0000 -0.0000 -0.0000
    1GRA      C 3658   1.985   9.394  12.500  0.0000 -0.0000 -0.0000
    1GRA      C 3659   2.269   9.394  12.500 -0.0000 -0.0000  0.0000
    1GRA      C 3660   2.411   9.394  12.500  0.0000 -0.0000  0.0000
    1GRA      C 3661   2.694   9.394  12.500  0.0000 -0.0000  0.0000
    1GRA      C 3662   2.836   9.394  12.500  0.0000 -0.0000  0.0000
    1GRA      C 3663   3.120   9.394  12.500 -0.0000 -0.0000  0.0000
    1GRA      C 3664   3.262   9.394  12.500  0.0000 -0.0000  0.0000
    1GRA      C 3665   3.545   9.394  12.500 -0.0000 -0.0000  0.0000
    1GRA      C 3666   3.687   9.394  12.500  0.0000 -0.0000  0.0000
    1GRA      C 3667   3.971   9.394  12.500 -0.0000 -0.0000  0.0000
    1GRA      C 3668   4.112   9.394  12.500  0.0000 -0.0000  0.0000
    1GRA      C 3669   4.396   9.394  12.500 -0.0000 -0.0000  0.0000
    1GRA      C 3670   4.538   9.394  12.500  0.0000 -0.0000  0.0000
    1GRA      C 3671   4.821   9.394  12.500  0.0000 -0.0000  0.0000
    1GRA      C 3672   4.963   9.394  12.500  0.0000 -0.0000  0.0000
    1GRA      C 3673   5.247   9.394  12.500 -0.0000 -0.0000  0.0000
    1GRA      C 3674   5.389   9.394  12.500 -0.0000 -0.0000  0.0000
    1GRA      C 3675   5.672   9.394  12.500 -0.0000 -0.0000  0.0000
    1GRA      C 3676   5.814   9.394  12.500  0.0000 -0.0000  0.0000
    1GRA      C 3677   6.098   9.394  12.500 -0.0000 -0.0000  0.0000
    1GRA      C 3678   6.239   9.394  12.500  0.0000 -0.0000  0.0000
    1GRA      C 3679   6.523   9.394  12.500 -0.0000 -0.0000  0.0000
    1GRA      C 3680   6.665   9.394  12.500  0.0000 -0.0000  0.0000
    1GRA      C 3681   6.948   9.394  12.500  0.0000 -0.0000  0.0000
    1GRA      C 3682   7.090   9.394  12.500  0.0000 -0.0000  0.0000
    1GRA      C 3683   7.374   9.394  12.500 -0.0000 -0.0000  0.0000
    1GRA      C 3684   7.516   9.394  12.500  0.0000 -0.0000  0.0000
    1GRA      C 3685   7.799   9.394  12.500 -0.0000 -0.0000  0.0000
    1GRA      C 3686   7.941   9.394  12.500  0.0000 -0.0000  0.0000
    1GRA      C 3687   8.225   9.394  12.500 -0.0000 -0.0000  0.0000
    1GRA      C 3688   8.366   9.394  12.500  0.0000 -0.0000  0.0000
    1GRA      C 3689   8.650   9.394  12.500 -0.0000 -0.0000  0.0000
    1GRA      C 3690   8.792   9.394  12.500  0.0000 -0.0000  0.0000
    1GRA      C 3691   9.075   9.394  12.500  0.0000 -0.0000  0.0000
    1GRA      C 3692   9.217   9.394  12.500  0.0000 -0.0000  0.0000
    1GRA      C 3693   9.501   9.394  12.500 -0.0000 -0.0000  0.0000
    1GRA      C 3694   9.643   9.394  12.500  0.0000 -0.0000  0.0000
    1GRA      C 3695   9.926   9.394  12.500 -0.0000 -0.0000 -0.0000
    1GRA      C 3696  10.068   9.394  12.500  0.0000 -0.0000 -0.0000
    1GRA      C 3697   0.071   9.517  12.500  0.0000  0.0000  0.0000
    1GRA      C 3698   0.355   9.517  12.500 -0.0000  0.0000  0.0000
    1GRA      C 3699   0.496   9.517  12.500  0.0000  0.0000  0.0000
    1GRA      C 3700   0.780   9.517  12.500 -0.0000  0.0000  0.0000
    1GRA      C 3701   0.922   9.517  12.500  0.0000  0.0000 -0.0000
    1GRA      C 3702   1.205   9.517  12.500  0.0000  0.0000 -0.0000
    1GRA      C 3703   1.347   9.517  12.500  0.0000  0.0000 -0.0000
    1GRA      C 3704   1.631   9.517  12.500 -0.0000  0.0000 -0.0000
    1GRA      C 3705   1.773   9.517  12.500  0.0000  0.0000 -0.0000
    1GRA      C 3706   2.056   9.517  12.500 -0.0000  0.0000 -0.0000
    1GRA      C 3707   2.198   9.517  12.500  0.0000  0.0000 -0.0000
    1GRA      C 3708   2.482   9.517  12.500 -0.0000  0.0000  0.0000
    1GRA      C 3709   2.624   9.517  12.500 -0.0000  0.0000  0.0000
    1GRA      C 3710   2.907   9.517  12.500 -0.0000  0.0000  0.0000
    1GRA      C 3711   3.049   9.517  12.500  0.0000  0.0000  0.0000
    1GRA      C 3712   3.333   9.517  12.500 -0.0000  0.0000  0.0000
    1GRA      C 3713   3.474   9.517  12.500  0.0000  0.0000  0.0000
    1GRA      C 3714   3.758   9.517  12.500 -0.0000  0.0000  0.0000
    1GRA      C 3715   3.900   9.517  12.500  0.0000  0.0000  0.0000
    1GRA      C 3716   4.183   9.517  12.500 -0.0000  0.0000  0.0000
    1GRA      C 3717   4.325   9.517  12.500  0.0000  0.0000  0.0000
    1GRA      C 3718   4.609   9.517  12.500 -0.0000  0.0000  0.0000
    1GRA      C 3719   4.751   9.517  12.500 -0.0000  0.0000  0.0000
    1GRA      C 3720   5.034   9.517  12.500 -0.0000  0.0000  0.0000
    1GRA      C 3721   5.176   9.517  12.500  0.0000  0.0000  0.0000
    1GRA      C 3722   5.459   9.517  12.500  0.0000  0.0000  0.0000
    1GRA      C 3723   5.601   9.517  12.500  0.0000  0.0000  0.0000
    1GRA      C 3724   5.885   9.517  12.500 -0.0000  0.0000  0.0000
    1GRA      C 3725   6.027   9.517  12.500  0.0000  0.0000  0.0000
    1GRA      C 3726   6.310   9.517  12.500 -0.0000  0.0000  0.0000
    1GRA      C 3727   6.452   9.517  12.500  0.0000  0.0000  0.0000
    1GRA      C 3728   6.736   9.517  12.500 -0.0000  0.0000  0.0000
    1GRA      C 3729   6.878   9.517  12.500 -0.0000  0.0000  0.0000
    1GRA      C 3730   7.161   9.517  12.500 -0.0000  0.0000  0.0000
    1GRA      C 3731   7.303   9.517  12.500  0.0000  0.0000  0.0000
    1GRA      C 3732   7.587   9.517  12.500 -0.0000  0.0000  0.0000
    1GRA      C 3733   7.728   9.517  12.500  0.0000  0.0000  0.0000
    1GRA      C 3734   8.012   9.517  12.500 -0.0000  0.0000  0.0000
    1GRA      C 3735   8.154   9.517  12.500  0.0000  0.0000  0.0000
    1GRA      C 3736   8.437   9.517  12.500 -0.0000  0.0000  0.0000
    1GRA      C 3737   8.579   9.517  12.500  0.0000  0.0000  0.0000
    1GRA      C 3738   8.863   9.517  12.500 -0.0000  0.0000  0.0000
    1GRA      C 3739   9.005   9.517  12.500 -0.0000  0.0000  0.0000
    1GRA      C 3740   9.288   9.517  12.500 -0.0000  0.0000  0.0000
    1GRA      C 3741   9.430   9.517  12.500  0.0000  0.0000  0.0000
    1GRA      C 3742   9.714   9.517  12.500 -0.0000  0.0000  0.0000
    1GRA      C 3743   9.855   9.517  12.500  0.0000  0.0000  0.0000
    1GRA      C 3744  10.139   9.517  12.500 -0.0000  0.0000  0.0000
    1GRA      C 3745   0.142   9.639  12.500 -0.0000 -0.0000  0.0000
    1GRA      C 3746   0.284   9.639  12.500  0.0000 -0.0000  0.0000
    1GRA      C 3747   0.567   9.639  12.500 -0.0000 -0.0000  0.0000
    1GRA      C 3748   0.709   9.639  12.500  0.0000 -0.0000  0.0000
    1GRA      C 3749   0.993   9.639  12.500 -0.0000 -0.0000  0.0000
    1GRA      C 3750   1.135   9.639  12.500 -0.0000 -0.0000  0.0000
    1GRA      C 3751   1.418   9.639  12.500 -0.0000 -0.0000  0.0000
    1GRA      C 3752   1.560   9.639  12.500  0.0000 -0.0000 -0.0000
    1GRA      C 3753   1.844   9.639  12.500 -0.0000 -0.0000 -0.0000
    1GRA      C 3754   1.985   9.639  12.500  0.0000 -0.0000 -0.0000
    1GRA      C 3755   2.269   9.639  12.500 -0.0000 -0.0000 -0.0000
    1GRA      C 3756   2.411   9.639  12.500  0.0000 -0.0000 -0.0000
    1GRA      C 3757   2.694   9.639  12.500  0.0000 -0.0000  0.0000
    1GRA      C 3758   2.836   9.639  12.500  0.0000 -0.0000  0.0000
    1GRA      C 3759   3.120   9.639  12.500 -0.0000 -0.0000  0.0000
    1GRA      C 3760   3.262   9.639  12.500  0.0000 -0.0000  0.0000
    1GRA      C 3761   3.545   9.639  12.500 -0.0000 -0.0000  0.0000
    1GRA      C 3762   3.687   9.639  12.500  0.0000 -0.0000  0.0000
    1GRA      C 3763   3.971   9.639  12.500 -0.0000 -0.0000  0.0000
    1GRA      C 3764   4.112   9.639  12.500  0.0000 -0.0000  0.0000
    1GRA      C 3765   4.396   9.639  12.500 -0.0000 -0.0000  0.0000
    1GRA      C 3766   4.538   9.639  12.500  0.0000 -0.0000  0.0000
    1GRA      C 3767   4.821   9.639  12.500  0.0000 -0.0000  0.0000
    1GRA      C 3768   4.963   9.639  12.500  0.0000 -0.0000  0.0000
    1GRA      C 3769   5.247   9.639  12.500 -0.0000 -0.0000  0.0000
    1GRA      C 3770   5.389   9.639  12.500 -0.0000 -0.0000  0.0000
    1GRA      C 3771   5.672   9.639  12.500 -0.0000 -0.0000  0.0000
    1GRA      C 3772   5.814   9.639  12.500  0.0000 -0.0000  0.0000
    1GRA      C 3773   6.098   9.639  12.500 -0.0000 -0.0000  0.0000
    1GRA      C 3774   6.239   9.639  12.500  0.0000 -0.0000  0.0000
    1GRA      C 3775   6.523   9.639  12.500 -0.0000 -0.0000  0.0000
    1GRA      C 3776   6.665   9.639  12.500  0.0000 -0.0000  0.0000
    1GRA      C 3777   6.948   9.639  12.500  0.0000 -0.0000  0.0000
    1GRA      C 3778   7.090   9.639  12.500  0.0000 -0.0000  0.0000
    1GRA      C 3779   7.374   9.639  12.500 -0.0000 -0.0000  0.0000
    1GRA      C 3780   7.516   9.639  12.500  0.0000 -0.0000  0.0000
    1GRA      C 3781   7.799   9.639  12.500 -0.0000 -0.0000  0.0000
    1GRA      C 3782   7.941   9.639  12.500  0.0000 -0.0000  0.0000
    1GRA      C 3783   8.225   9.639  12.500 -0.0000 -0.0000  0.0000
    1GRA      C 3784   8.366   9.639  12.500  0.0000 -0.0000  0.0000
    1GRA      C 3785   8.650   9.639  12.500 -0.0000 -0.0000  0.0000
    1GRA      C 3786   8.792   9.639  12.500  0.0000 -0.0000  0.0000
    1GRA      C 3787   9.075   9.639  12.500  0.0000 -0.0000  0.0000
    1GRA      C 3788   9.217   9.639  12.500  0.0000 -0.0000  0.0000
    1GRA      C 3789   9.501   9.639  12.500 -0.0000 -0.0000  0.0000
    1GRA      C 3790   9.643   9.639  12.500  0.0000 -0.0000  0.0000
    1GRA      C 3791   9.926   9.639  12.500 -0.0000 -0.0000  0.0000
    1GRA      C 3792  10.068   9.639  12.500  0.0000 -0.0000  0.0000
    1GRA      C 3793   0.071   9.762  12.500  0.0000  0.0000  0.0000
    1GRA      C 3794   0.355   9.762  12.500 -0.0000  0.0000  0.0000
    1GRA      C 3795   0.496   9.762  12.500  0.0000  0.0000  0.0000
    1GRA      C 3796   0.780   9.762  12.500 -0.0000  0.0000  0.0000
    1GRA      C 3797   0.922   9.762  12.500  0.0000  0.0000  0.0000
    1GRA      C 3798   1.205   9.762  12.500  0.0000  0.0000  0.0000
    1GRA      C 3799   1.347   9.762  12.500  0.0000  0.0000  0.0000
    1GRA      C 3800   1.631   9.762  12.500 -0.0000  0.0000  0.0000
    1GRA      C 3801   1.773   9.762  12.500  0.0000  0.0000  0.0000
    1GRA      C 3802   2.056   9.762  12.500 -0.0000  0.0000 -0.0000
    1GRA      C 3803   2.198   9.762  12.500  0.0000  0.0000 -0.0000
    1GRA      C 3804   2.482   9.762  12.500 -0.0000  0.0000 -0.0000
    1GRA      C 3805   2.624   9.762  12.500 -0.0000  0.0000 -0.0000
    1GRA      C 3806   2.907   9.762  12.500 -0.0000  0.0000  0.0000
    1GRA      C 3807   3.049   9.762  12.500  0.0000  0.0000  0.0000
    1GRA      C 3808   3.333   9.762  12.500 -0.0000  0.0000  0.0000
    1GRA      C 3809   3.474   9.762  12.500  0.0000  0.0000  0.0000
    1GRA      C 3810   3.758   9.762  12.500 -0.0000  0.0000  0.0000
    1GRA      C 3811   3.900   9.762  12.500  0.0000  0.0000  0.0000
    1GRA      C 3812   4.183   9.762  12.500 -0.0000  0.0000  0.0000
    1GRA      C 3813   4.325   9.762  12.500  0.0000  0.0000  0.0000
    1GRA      C 3814   4.609   9.762  12.500 -0.0000  0.0000  0.0000
    1GRA      C 3815   4.751   9.762  12.500 -0.0000  0.0000  0.0000
    1GRA      C 3816   5.034   9.762  12.500 -0.0000  0.0000  0.0000
    1GRA      C 3817   5.176   9.762  12.500  0.0000  0.0000  0.0000
    1GRA      C 3818   5.459   9.762  12.500  0.0000  0.0000  0.0000
    1GRA      C 3819   5.601   9.762  12.500  0.0000  0.0000  0.0000
    1GRA      C 3820   5.885   9.762  12.500 -0.0000  0.0000  0.0000
    1GRA      C 3821   6.027   9.762  12.500  0.0000  0.0000  0.0000
    1GRA      C 3822   6.310   9.762  12.500 -0.0000  0.0000  0.0000
    1GRA      C 3823   6.452   9.762  12.500  0.0000  0.0000  0.0000
    1GRA      C 3824   6.736   9.762  12.500 -0.0000  0.0000  0.0000
    1GRA      C 3825   6.878   9.762  12.500 -0.0000  0.0000  0.0000
    1GRA      C 3826   7.161   9.762  12.500 -0.0000  0.0000  0.0000
    1GRA      C 3827   7.303   9.762  12.500  0.0000  0.0000  0.0000
    1GRA      C 3828   7.587   9.762  12.500 -0.0000  0.0000  0.0000
    1GRA      C 3829   7.728   9.762  12.500  0.0000  0.0000  0.0000
    1GRA      C 3830   8.012   9.762  12.500 -0.0000  0.0000  0.0000
    1GRA      C 3831   8.154   9.762  12.500  0.0000  0.0000  0.0000
    1GRA      C 3832   8.437   9.762  12.500 -0.0000  0.0000  0.0000
    1GRA      C 3833   8.579   9.762  12.500  0.0000  0.0000  0.0000
    1GRA      C 3834   8.863   9.762  12.500 -0.0000  0.0000  0.0000
    1GRA      C 3835   9.005   9.762  12.500 -0.0000  0.0000  0.0000
    1GRA      C 3836   9.288   9.762  12.500 -0.0000  0.0000  0.0000
    1GRA      C 3837   9.430   9.762  12.500  0.0000  0.0000  0.0000
    1GRA      C 3838   9.714   9.762  12.500 -0.0000  0.0000  0.0000
    1GRA      C 3839   9.855   9.762  12.500  0.0000  0.0000  0.0000
    1GRA      C 3840  10.139   9.762  12.500 -0.0000  0.0000  0.0000
    1GRA      C 3841   0.142   9.885  12.500 -0.0000 -0.0000  0.0000
    1GRA      C 3842   0.284   9.885  12.500 -0.0000 -0.0000  0.0000
    1GRA      C 3843   0.567   9.885  12.500  0.0000 -0.0000  0.0000
    1GRA      C 3844   0.709   9.885  12.500  0.0000 -0.0000  0.0000
    1GRA      C 3845   0.993   9.885  12.500 -0.0000 -0.0000  0.0000
    1GRA      C 3846   1.135   9.885  12.500 -0.0000 -0.0000  0.0000
    1GRA      C 3847   1.418   9.885  12.500  0.0000 -0.0000  0.0000
    1GRA      C 3848   1.560   9.885  12.500  0.0000 -0.0000  0.0000
    1GRA      C 3849   1.844   9.885  12.500 -0.0000 -0.0000  0.0000
    1GRA      C 3850   1.985   9.885  12.500  0.0000 -0.0000  0.0000
    1GRA      C 3851   2.269   9.885  12.500 -0.0000 -0.0000 -0.0000
    1GRA      C 3852   2.411   9.885  12.500 -0.0000 -0.0000 -0.0000
    1GRA      C 3853   2.694   9.885  12.500  0.0000 -0.0000 -0.0000
    1GRA      C 3854   2.836   9.885  12.500  0.0000 -0.0000 -0.0000
    1GRA      C 3855   3.120   9.885  12.500 -0.0000 -0.0000  0.0000
    1GRA      C 3856   3.262   9.885  12.500 -0.0000 -0.0000  0.0000
    1GRA      C 3857   3.545   9.885  12.500  0.0000 -0.0000  0.0000
    1GRA      C 3858   3.687   9.885  12.500  0.0000 -0.0000  0.0000
    1GRA      C 3859   3.971   9.885  12.500 -0.0000 -0.0000  0.0000
    1GRA      C 3860   4.112   9.885  12.500  0.0000 -0.0000  0.0000
    1GRA      C 3861   4.396   9.885  12.500 -0.0000 -0.0000 -0.0000
    1GRA      C 3862   4.538   9.885  12.500 -0.0000 -0.0000  0.0000
    1GRA      C 3863   4.821   9.885  12.500  0.0000 -0.0000 -0.0000
    1GRA      C 3864   4.963   9.885  12.500  0.0000 -0.0000  0.0000
    1GRA      C 3865   5.247   9.885  12.500 -0.0000 -0.0000 -0.0000
    1GRA      C 3866   5.389   9.885  12.500 -0.0000 -0.0000  0.0000
    1GRA      C 3867   5.672   9.885  12.500  0.0000 -0.0000 -0.0000
    1GRA      C 3868   5.814   9.885  12.500  0.0000 -0.0000  0.0000
    1GRA      C 3869   6.098   9.885  12.500 -0.0000 -0.0000 -0.0000
    1GRA      C 3870   6.239   9.885  12.500  0.0000 -0.0000  0.0000
    1GRA      C 3871   6.523   9.885  12.500 -0.0000 -0.0000 -0.0000
    1GRA      C 3872   6.665   9.885  12.500 -0.0000 -0.0000  0.0000
    1GRA      C 3873   6.948   9.885  12.500  0.0000 -0.0000 -0.0000
    1GRA      C 3874   7.090   9.885  12.500  0.0000 -0.0000  0.0000
    1GRA      C 3875   7.374   9.885  12.500 -0.0000 -0.0000 -0.0000
    1GRA      C 3876   7.516   9.885  12.500 -0.0000 -0.0000  0.0000
    1GRA      C 3877   7.799   9.885  12.500  0.0000 -0.0000  0.0000
    1GRA      C 3878   7.941   9.885  12.500  0.0000 -0.0000  0.0000
    1GRA      C 3879   8.225   9.885  12.500 -0.0000 -0.0000  0.0000
    1GRA      C 3880   8.366   9.885  12.500  0.0000 -0.0000  0.0000
    1GRA      C 3881   8.650   9.885  12.500 -0.0000 -0.0000  0.0000
    1GRA      C 3882   8.792   9.885  12.500 -0.0000 -0.0000  0.0000
    1GRA      C 3883   9.075   9.885  12.500  0.0000 -0.0000  0.0000
    1GRA      C 3884   9.217   9.885  12.500  0.0000 -0.0000  0.0000
    1GRA      C 3885   9.501   9.885  12.500 -0.0000 -0.0000  0.0000
    1GRA      C 3886   9.643   9.885  12.500 -0.0000 -0.0000  0.0000
    1GRA      C 3887   9.926   9.885  12.500  0.0000 -0.0000  0.0000
    1GRA      C 3888  10.068   9.885  12.500  0.0000 -0.0000  0.0000
    1GRA      C 3889   0.071  10.008  12.500  0.0000 -0.0000  0.0000
    1GRA      C 3890   0.355  10.008  12.500  0.0000 -0.0000  0.0000
    1GRA      C 3891   0.496  10.008  12.500 -0.0000 -0.0000  0.0000
    1GRA      C 3892   0.780  10.008  12.500  0.0000 -0.0000  0.0000
    1GRA      C 3893   0.922  10.008  12.500 -0.0000 -0.0000  0.0000
    1GRA      C 3894   1.205  10.008  12.500  0.0000  0.0000  0.0000
    1GRA      C 3895   1.347  10.008  12.500 -0.0000 -0.0000  0.0000
    1GRA      C 3896   1.631  10.008  12.500  0.0000 -0.0000  0.0000
    1GRA      C 3897   1.773  10.008  12.500 -0.0000 -0.0000  0.0000
    1GRA      C 3898   2.056  10.008  12.500  0.0000 -0.0000  0.0000
    1GRA      C 3899   2.198  10.008  12.500 -0.0000 -0.0000  0.0000
    1GRA      C 3900   2.482  10.008  12.500  0.0000 -0.0000 -0.0000
    1GRA      C 3901   2.624  10.008  12.500 -0.0000  0.0000 -0.0000
    1GRA      C 3902   2.907  10.008  12.500  0.0000 -0.0000 -0.0000
    1GRA      C 3903   3.049  10.008  12.500 -0.0000 -0.0000  0.0000
    1GRA      C 3904   3.333  10.008  12.500  0.0000 -0.0000  0.0000
    1GRA      C 3905   3.474  10.008  12.500 -0.0000 -0.0000  0.0000
    1GRA      C 3906   3.758  10.008  12.500  0.0000 -0.0000  0.0000
    1GRA      C 3907   3.900  10.008  12.500 -0.0000 -0.0000  0.0000
    1GRA      C 3908   4.183  10.008  12.500  0.0000 -0.0000  0.0000
    1GRA      C 3909   4.325  10.008  12.500 -0.0000 -0.0000  0.0000
    1GRA      C 3910   4.609  10.008  12.500  0.0000 -0.0000 -0.0000
    1GRA      C 3911   4.751  10.008  12.500 -0.0000  0.0000 -0.0000
    1GRA      C 3912   5.034  10.008  12.500  0.0000 -0.0000 -0.0000
    1GRA      C 3913   5.176  10.008  12.500 -0.0000 -0.0000  0.0000
    1GRA      C 3914   5.459  10.008  12.500  0.0000  0.0000  0.0000
    1GRA      C 3915   5.601  10.008  12.500 -0.0000 -0.0000 -0.0000
    1GRA      C 3916   5.885  10.008  12.500  0.0000 -0.0000 -0.0000
    1GRA      C 3917   6.027  10.008  12.500 -0.0000 -0.0000 -0.0000
    1GRA      C 3918   6.310  10.008  12.500  0.0000 -0.0000 -0.0000
    1GRA      C 3919   6.452  10.008  12.500 -0.0000 -0.0000 -0.0000
    1GRA      C 3920   6.736  10.008  12.500  0.0000 -0.0000 -0.0000
    1GRA      C 3921   6.878  10.008  12.500 -0.0000  0.0000 -0.0000
    1GRA      C 3922   7.161  10.008  12.500  0.0000 -0.0000  0.0000
    1GRA      C 3923   7.303  10.008  12.500 -0.0000 -0.0000  0.0000
    1GRA      C 3924   7.587  10.008  12.500  0.0000 -0.0000  0.0000
    1GRA      C 3925   7.728  10.008  12.500 -0.0000 -0.0000 -0.0000
    1GRA      C 3926   8.012  10.008  12.500  0.0000 -0.0000  0.0000
    1GRA      C 3927   8.154  10.008  12.500 -0.0000 -0.0000  0.0000
    1GRA      C 3928   8.437  10.008  12.500  0.0000 -0.0000  0.0000
    1GRA      C 3929   8.579  10.008  12.500 -0.0000 -0.0000  0.0000
    1GRA      C 3930   8.863  10.008  12.500  0.0000 -0.0000  0.0000
    1GRA      C 3931   9.005  10.008  12.500 -0.0000  0.0000  0.0000
    1GRA      C 3932   9.288  10.008  12.500  0.0000 -0.0000  0.0000
    1GRA      C 3933   9.430  10.008  12.500 -0.0000 -0.0000  0.0000
    1GRA      C 3934   9.714  10.008  12.500  0.0000 -0.0000  0.0000
    1GRA      C 3935   9.855  10.008  12.500 -0.0000 -0.0000  0.0000
    1GRA      C 3936  10.139  10.008  12.500 -0.0000 -0.0000  0.0000
    2MOL      C 3937  10.050   7.303  13.168 -0.0747 -0.0054 -0.0432
    2MOL      C 3938  10.057   7.438  13.124 -0.0922 -0.0432 -0.0194
    2MOL      C 3939  10.085   7.285  13.304 -0.1922 -0.0903  0.1107
    2MOL      C 3940  10.000   7.538  13.202 -0.0457 -0.0862  0.1397
    2MOL      C 3941  10.030   7.672  13.157 -0.1728 -0.1507  0.0460
    2MOL      C 3942  10.046   7.447  12.979  0.2106 -0.3276  0.0581
    2MOL      C 3943  10.083   7.574  12.932 -0.1247  0.0137 -0.3028
    2MOL      C 3944  10.076   7.689  13.024  0.0627 -0.2558 -0.1262
    2MOL      C 3945   0.075   7.156  13.231 -0.0178 -0.1488  0.0900
    2MOL      C 3946   0.054   7.221  13.104 -0.0467 -0.0657 -0.0618
    2MOL      C 3947  10.209   7.212  13.333 -0.0375  0.1529  0.3322
    2MOL      C 3948  10.132   7.241  13.062  0.0055 -0.1794 -0.1710
    2MOL      C 3949  10.126   7.330  12.943 -0.0057 -0.0382 -0.0155
    2MOL      C 3950   0.155   7.183  13.009 -0.3524  0.0261  0.1703
    2MOL      C 3951   0.153   7.268  12.898  0.1579  0.1107  0.1697
    2MOL      C 3952   0.030   7.342  12.861  0.0202  0.0288 -0.0053
    2MOL      C 3953   0.206   7.284  13.446 -0.0149  0.2511 -0.2489
    2MOL      C 3954   0.287   7.224  13.340 -0.1559 -0.0290 -0.0678
    2MOL      C 3955   0.066   7.280  13.445 -0.0211  0.2376 -0.1788
    2MOL      C 3956   0.222   7.161  13.234 -0.2521  0.0664 -0.0488
    2MOL      C 3957   0.271   7.173  13.098 -0.5055 -0.0610  0.3483
    2MOL      C 3958   0.401   7.310  13.313 -0.1783  0.0898  0.1553
    2MOL      C 3959   0.446   7.328  13.182 -0.0432 -0.0949  0.0500
    2MOL      C 3960   0.381   7.260  13.071  0.2512 -0.0411  0.3152
    2MOL      C 3961   0.048   7.517  13.517 -0.0112  0.2191 -0.1732
    2MOL      C 3962   0.192   7.521  13.518 -0.2251 -0.2025  0.0052
    2MOL      C 3963  10.195   7.397  13.480  0.0995 -0.1435 -0.2938
    2MOL      C 3964   0.269   7.409  13.484 -0.2614  0.1031  0.0664
    2MOL      C 3965   0.392   7.425  13.404 -0.1045 -0.2070  0.1921
    2MOL      C 3966   0.235   7.652  13.473 -0.1806 -0.0100 -0.1049
    2MOL      C 3967   0.351   7.669  13.393 -0.1023  0.0589 -0.0159
    2MOL      C 3968   0.434   7.553  13.360 -0.0069 -0.0350  0.0646
    2MOL      C 3969  10.036   7.528  13.342  0.2445 -0.2434 -0.0902
    2MOL      C 3970  10.098   7.653  13.384 -0.0481 -0.1267  0.1208
    2MOL      C 3971  10.077   7.402  13.392 -0.0419 -0.1257 -0.1166
    2MOL      C 3972  10.208   7.647  13.469 -0.0294  0.1027 -0.1669
    2MOL      C 3973   0.117   7.730  13.441 -0.1663 -0.2436  0.0118
    2MOL      C 3974  10.099   7.742  13.266  0.0185  0.2831 -0.2640
    2MOL      C 3975   0.002   7.820  13.240 -0.0354 -0.0218 -0.2062
    2MOL      C 3976   0.117   7.817  13.330  0.1625  0.1142  0.0366
    2MOL      C 3977   0.430   7.700  13.172  0.0008 -0.0066  0.0385
    2MOL      C 3978   0.353   7.764  13.281 -0.0832 -0.2400 -0.2921
    2MOL      C 3979   0.236   7.831  13.247  0.0082 -0.2546 -0.0881
    2MOL      C 3980   0.388   7.712  13.039 -0.1397 -0.2045 -0.1156
    2MOL      C 3981   0.447   7.474  12.993  0.1265 -0.0411  0.2154
    2MOL      C 3982   0.484   7.460  13.134  0.0645  0.1850 -0.0143
    2MOL      C 3983   0.477   7.570  13.222  0.0207  0.1765 -0.0610
    2MOL      C 3984   0.400   7.598  12.948 -0.1054 -0.0151  0.3222
    2MOL      C 3985   0.218   7.482  12.829 -0.0700 -0.0632  0.0746
    2MOL      C 3986   0.267   7.354  12.875  0.0244 -0.1620  0.2576
    2MOL      C 3987   0.381   7.349  12.956  0.0790 -0.1384  0.1359
    2MOL      C 3988   0.282   7.602  12.861 -0.1087  0.0743 -0.1783
    2MOL      C 3989   0.061   7.715  12.890 -0.0607 -0.1510  0.0885
    2MOL      C 3990  10.205   7.588  12.855 -0.2660 -0.1047 -0.0791
    2MOL      C 3991   0.071   7.474  12.821 -0.0823 -0.0707 -0.0373
    2MOL      C 3992   0.202   7.721  12.893 -0.2392 -0.2217  0.1373
    2MOL      C 3993   0.192   7.847  13.108 -0.0719  0.1129 -0.0208
    2MOL      C 3994   0.046   7.843  13.102  0.0630  0.2157 -0.1346
    2MOL      C 3995  10.191   7.774  12.998 -0.1330 -0.0157 -0.2187
    2MOL      C 3996   0.268   7.786  13.006  0.0689  0.0107  0.2317
    3MOL      C 3997   0.647   6.467  12.943 -0.2640 -0.0011 -0.0539
    3MOL      C 3998   0.640   6.580  12.854  0.0187 -0.0534 -0.1485
    3MOL      C 3999   0.568   6.464  13.059  0.0826  0.0890  0.1144
    3MOL      C 4000   0.540   6.679  12.871  0.0085  0.1345 -0.1461
    3MOL      C 4001   0.579   6.819  12.853  0.1783  0.3106  0.1438
    3MOL      C 4002   0.778   6.615  12.815  0.0803 -0.0909 -0.0529
    3MOL      C 4003   0.805   6.745  12.852 -0.1950 -0.1393  0.0397
    3MOL      C 4004   0.712   6.849  12.818  0.0653 -0.0220 -0.0604
    3MOL      C 4005   0.759   6.391  13.196 -0.0826  0.1000  0.0222
    3MOL      C 4006   0.836   6.451  13.090  0.0333  0.1541  0.1401
    3MOL      C 4007   0.621   6.416  13.186 -0.0395 -0.0949 -0.2485
    3MOL      C 4008   0.791   6.439  12.961  0.2282  0.1335 -0.1743
    3MOL      C 4009   0.872   6.515  12.866  0.0319  0.0706 -0.0431
    3MOL      C 4010   0.976   6.446  13.119 -0.0372 -0.0220 -0.1420
    3MOL      C 4011   1.054   6.527  13.035  0.0878 -0.1066 -0.2486
    3MOL      C 4012   1.000   6.563  12.904 -0.1252  0.1210  0.0112
    3MOL      C 4013   0.634   6.544  13.400  0.0333  0.2112 -0.1055
    3MOL      C 4014   0.777   6.510  13.410  0.0044  0.0714 -0.1697
    3MOL      C 4015   0.560   6.502  13.288  0.2786  0.2277 -0.2386
    3MOL      C 4016   0.838   6.431  13.312 -0.0233 -0.2974  0.1848
    3MOL      C 4017   0.972   6.464  13.264  0.0413 -0.1422  0.2022
    3MOL      C 4018   0.849   6.623  13.468 -0.1242 -0.0044 -0.0527
    3MOL      C 4019   0.978   6.656  13.422 -0.0341 -0.2074 -0.0177
    3MOL      C 4020   1.040   6.578  13.318 -0.2111  0.0757  0.1536
    3MOL      C 4021   0.446   6.723  13.275 -0.0567  0.0965  0.0531
    3MOL      C 4022   0.526   6.768  13.388 -0.0773  0.0584 -0.0456
    3MOL      C 4023   0.462   6.590  13.227  0.0460 -0.0643 -0.2295
    3MOL      C 4024   0.619   6.680  13.448  0.1869 -0.0758 -0.1038
    3MOL      C 4025   0.752   6.728  13.485  0.0903  0.1727 -0.1905
    3MOL      C 4026   0.565   6.907  13.364 -0.0903  0.0093 -0.1657
    3MOL      C 4027   0.694   6.953  13.402 -0.0332  0.0394 -0.1022
    3MOL      C 4028   0.788   6.862  13.465  0.0951  0.0960 -0.0319
    3MOL      C 4029   0.462   6.675  12.995  0.1577  0.1152  0.1367
    3MOL      C 4030   0.439   6.811  13.042 -0.0996  0.0975 -0.1242
    3MOL      C 4031   0.466   6.565  13.083 -0.1323  0.3078 -0.0898
    3MOL      C 4032   0.437   6.831  13.180 -0.1286 -0.0847 -0.1501
    3MOL      C 4033   0.509   6.947  13.237  0.0678 -0.0004 -0.0461
    3MOL      C 4034   0.516   6.902  12.956  0.1085  0.2515 -0.1078
    3MOL      C 4035   0.584   7.012  13.009  0.0465  0.0366  0.0093
    3MOL      C 4036   0.582   7.033  13.152  0.2615 -0.0816 -0.1478
    3MOL      C 4037   0.908   7.009  13.330 -0.0397  0.0005  0.0271
    3MOL      C 4038   0.767   7.050  13.320  0.0643  0.0104 -0.2732
    3MOL      C 4039   0.714   7.081  13.194  0.0775 -0.0205  0.0301
    3MOL      C 4040   0.987   7.012  13.217 -0.1165  0.0222 -0.0077
    3MOL      C 4041   1.101   6.802  13.284 -0.1052 -0.0830 -0.0349
    3MOL      C 4042   1.015   6.795  13.400 -0.1491  0.0310 -0.0630
    3MOL      C 4043   0.921   6.897  13.423 -0.0149 -0.0521 -0.2332
    3MOL      C 4044   1.088   6.909  13.194  0.1045 -0.0999  0.0679
    3MOL      C 4045   1.110   6.754  13.000  0.0628 -0.0889  0.0188
    3MOL      C 4046   1.121   6.643  13.093 -0.0451 -0.0467 -0.1188
    3MOL      C 4047   1.117   6.667  13.231  0.0847  0.0407 -0.1240
    3MOL      C 4048   1.090   6.884  13.050  0.1738 -0.0256  0.0321
    3MOL      C 4049   0.923   6.932  12.875 -0.0135 -0.0457  0.1858
    3MOL      C 4050   0.937   6.795  12.832 -0.3380 -0.1415  0.0022
    3MOL      C 4051   1.034   6.706  12.882  0.0892 -0.0658 -0.3166
    3MOL      C 4052   1.000   6.979  12.983  0.0766  0.0445  0.1558
    3MOL      C 4053   0.800   7.093  13.077  0.1683 -0.2125  0.0422
    3MOL      C 4054   0.720   7.047  12.962  0.2409  0.0233  0.0864
    3MOL      C 4055   0.781   6.969  12.865  0.0705 -0.0194  0.0111
    3MOL      C 4056   0.935   7.055  13.089  0.2062  0.0491  0.1261
    4MOL      C 4057   0.798   7.771  12.995 -0.0733 -0.0543 -0.1136
    4MOL      C 4058   0.867   7.697  12.894 -0.3493 -0.0236  0.1836
    4MOL      C 4059   0.834   7.904  13.027 -0.1813  0.1603 -0.3525
    4MOL      C 4060   0.974   7.758  12.824  0.0766  0.0113  0.1759
    4MOL      C 4061   1.097   7.692  12.852 -0.2138 -0.0176 -0.0905
    4MOL      C 4062   0.875   7.553  12.929  0.0202  0.0594 -0.0540
    4MOL      C 4063   0.995   7.484  12.904 -0.0739 -0.1109 -0.2491
    4MOL      C 4064   1.106   7.554  12.839 -0.1399 -0.0558 -0.2199
    4MOL      C 4065   0.816   7.851  13.268 -0.2731 -0.0073  0.1182
    4MOL      C 4066   0.833   7.716  13.221  0.1465  0.2238 -0.1271
    4MOL      C 4067   0.843   7.944  13.167  0.0511 -0.0234  0.0756
    4MOL      C 4068   0.775   7.677  13.103 -0.1606  0.0678  0.1508
    4MOL      C 4069   0.815   7.540  13.063 -0.0107  0.1547 -0.0505
    4MOL      C 4070   0.835   7.626  13.333  0.1359 -0.0372 -0.0650
    4MOL      C 4071   0.882   7.498  13.299  0.0199 -0.0222  0.0562
    4MOL      C 4072   0.870   7.452  13.160 -0.1567 -0.1869  0.2669
    4MOL      C 4073   1.036   8.035  13.297  0.0761 -0.1394 -0.0233
    4MOL      C 4074   1.006   7.935  13.401  0.0666  0.1233  0.1764
    4MOL      C 4075   0.958   8.037  13.181 -0.1489  0.1370  0.2691
    4MOL      C 4076   0.894   7.848  13.390 -0.1069 -0.0246 -0.0506
    4MOL      C 4077   0.904   7.708  13.431  0.1642 -0.1213 -0.2656
    4MOL      C 4078   1.131   7.882  13.455 -0.2342 -0.2020 -0.1182
    4MOL      C 4079   1.138   7.750  13.498 -0.1662 -0.0558  0.0532
    4MOL      C 4080   1.025   7.660  13.486  0.1035 -0.1197  0.0374
    4MOL      C 4081   1.161   8.057  13.041  0.0675  0.2017  0.1124
    4MOL      C 4082   1.243   8.053  13.160 -0.1217  0.0192  0.1585
    4MOL      C 4083   1.019   8.053  13.048 -0.1802  0.2107  0.1099
    4MOL      C 4084   1.181   8.037  13.286 -0.0941 -0.2552  0.0344
    4MOL      C 4085   1.240   7.948  13.386 -0.0664  0.0000 -0.3478
    4MOL      C 4086   1.366   7.979  13.129 -0.0997  0.0898 -0.1951
    4MOL      C 4087   1.421   7.891  13.227  0.0889 -0.1595 -0.0496
    4MOL      C 4088   1.356   7.875  13.356 -0.0003  0.0321 -0.0280
    4MOL      C 4089   1.012   7.896  12.858 -0.0992  0.2630  0.1249
    4MOL      C 4090   1.156   7.908  12.848 -0.1750  0.2345  0.0107
    4MOL      C 4091   0.943   7.971  12.954 -0.1428 -0.1026  0.0654
    4MOL      C 4092   1.230   7.986  12.936  0.1600  0.2616  0.0323
    4MOL      C 4093   1.357   7.937  12.991 -0.2406  0.0555 -0.1450
    4MOL      C 4094   1.207   7.776  12.812 -0.2761 -0.1144 -0.0576
    4MOL      C 4095   1.332   7.728  12.856  0.0069  0.0706 -0.2025
    4MOL      C 4096   1.404   7.810  12.954 -0.2088  0.1498 -0.1829
    4MOL      C 4097   1.439   7.664  13.296  0.0039  0.1923 -0.2350
    4MOL      C 4098   1.469   7.759  13.188  0.1804  0.0364  0.0730
    4MOL      C 4099   1.463   7.721  13.053 -0.0563 -0.0660 -0.1776
    4MOL      C 4100   1.397   7.534  13.264 -0.0306 -0.2578 -0.0990
    4MOL      C 4101   1.222   7.536  13.438  0.0081  0.0323  0.2327
    4MOL      C 4102   1.259   7.673  13.467 -0.1293 -0.0888 -0.0349
    4MOL      C 4103   1.366   7.736  13.401  0.0898  0.1279  0.1606
    4MOL      C 4104   1.289   7.468  13.336 -0.1797 -0.2092 -0.1097
    4MOL      C 4105   1.076   7.372  13.251 -0.1469 -0.1529  0.1006
    4MOL      C 4106   1.007   7.449  13.354  0.1536  0.0239 -0.0098
    4MOL      C 4107   1.076   7.529  13.447 -0.0342 -0.0678 -0.1678
    4MOL      C 4108   1.216   7.386  13.240 -0.0693  0.1698 -0.0363
    4MOL      C 4109   1.199   7.404  12.994 -0.2700  0.1405 -0.3071
    4MOL      C 4110   1.052   7.393  13.003 -0.2611  0.0282  0.0931
    4MOL      C 4111   0.993   7.381  13.130  0.0704  0.0975 -0.0043
    4MOL      C 4112   1.280   7.404  13.110 -0.1867  0.0549 -0.2662
    4MOL      C 4113   1.426   7.583  13.020 -0.0959  0.3147 -0.1491
    4MOL      C 4114   1.344   7.586  12.897 -0.1180 -0.1428  0.0758
    4MOL      C 4115   1.233   7.499  12.886  0.0204  0.1901 -0.0456
    4MOL      C 4116   1.392   7.495  13.125  0.0527 -0.0367 -0.2442
    5MOL      C 4117   1.438   8.500  12.835 -0.0570  0.1122  0.0459
    5MOL      C 4118   1.332   8.440  12.912  0.0716  0.2981 -0.1777
    5MOL      C 4119   1.573   8.489  12.874  0.1274 -0.0440 -0.1084
    5MOL      C 4120   1.361   8.364  13.029  0.0899  0.2225  0.0038
    5MOL      C 4121   1.283   8.382  13.150  0.0853 -0.2162  0.0576
    5MOL      C 4122   1.217   8.533  12.912 -0.1221  0.1001 -0.3255
    5MOL      C 4123   1.174   8.564  13.041 -0.0587 -0.0341 -0.0836
    5MOL      C 4124   1.171   8.466  13.147  0.0649 -0.2160 -0.1118
    5MOL      C 4125   1.611   8.730  12.833  0.0758  0.1084 -0.0066
    5MOL      C 4126   1.469   8.738  12.857  0.2867 -0.2081  0.2114
    5MOL      C 4127   1.665   8.605  12.867  0.1144  0.0066 -0.0040
    5MOL      C 4128   1.393   8.636  12.806  0.0519  0.2026 -0.0149
    5MOL      C 4129   1.250   8.651  12.833  0.0300 -0.1232 -0.0316
    5MOL      C 4130   1.427   8.874  12.833 -0.1576 -0.0931  0.3368
    5MOL      C 4131   1.294   8.895  12.870 -0.1907 -0.0302  0.0257
    5MOL      C 4132   1.201   8.780  12.872 -0.0499  0.1337 -0.1147
    5MOL      C 4133   1.789   8.719  13.053  0.1339  0.1511  0.3249
    5MOL      C 4134   1.737   8.848  13.005 -0.0832 -0.0232  0.3856
    5MOL      C 4135   1.751   8.600  12.987  0.3416 -0.0664  0.0070
    5MOL      C 4136   1.655   8.856  12.894  0.1252 -0.0357  0.1471
    5MOL      C 4137   1.538   8.946  12.892 -0.0113 -0.1705  0.1817
    5MOL      C 4138   1.706   8.932  13.120 -0.0718  0.2564  0.0663
    5MOL      C 4139   1.597   9.020  13.121 -0.2589  0.0049  0.2149
    5MOL      C 4140   1.511   9.029  13.004 -0.0410 -0.0998  0.2093
    5MOL      C 4141   1.715   8.487  13.205 -0.0695  0.0007  0.0945
    5MOL      C 4142   1.750   8.609  13.273  0.3393  0.0465 -0.1092
    5MOL      C 4143   1.714   8.481  13.063  0.1945  0.1735 -0.0655
    5MOL      C 4144   1.788   8.724  13.199 -0.0613 -0.0201  0.0051
    5MOL      C 4145   1.736   8.855  13.240 -0.1113  0.0672  0.0541
    5MOL      C 4146   1.668   8.625  13.393 -0.1962  0.0820 -0.0719
    5MOL      C 4147   1.625   8.752  13.437 -0.0665 -0.0269 -0.0388
    5MOL      C 4148   1.657   8.868  13.355 -0.1442 -0.1004  0.1702
    5MOL      C 4149   1.501   8.356  13.073  0.2355  0.0304  0.0412
    5MOL      C 4150   1.505   8.357  13.219  0.1223 -0.0949 -0.0488
    5MOL      C 4151   1.606   8.411  12.995  0.1994  0.1872  0.0768
    5MOL      C 4152   1.610   8.423  13.283  0.1399  0.0074 -0.2789
    5MOL      C 4153   1.584   8.508  13.401  0.1088 -0.0970 -0.0989
    5MOL      C 4154   1.369   8.375  13.268 -0.0034 -0.0577 -0.1005
    5MOL      C 4155   1.341   8.459  13.375  0.0802 -0.2410 -0.2488
    5MOL      C 4156   1.452   8.526  13.444  0.0584 -0.1790  0.0828
    5MOL      C 4157   1.438   8.895  13.430  0.0576 -0.1424 -0.1213
    5MOL      C 4158   1.488   8.768  13.484 -0.0771 -0.0844  0.1053
    5MOL      C 4159   1.401   8.657  13.489 -0.1278 -0.0180  0.1089
    5MOL      C 4160   1.306   8.907  13.387  0.0754 -0.3115  0.0747
    5MOL      C 4161   1.376   9.045  13.196 -0.2047 -0.0256  0.0164
    5MOL      C 4162   1.515   9.033  13.240 -0.0250  0.0358  0.0976
    5MOL      C 4163   1.544   8.959  13.355 -0.2715  0.0515  0.1819
    5MOL      C 4164   1.273   8.986  13.270  0.0845 -0.2699  0.0761
    5MOL      C 4165   1.161   8.916  13.062  0.1835 -0.2619  0.2343
    5MOL      C 4166   1.267   8.980  12.986 -0.0297 -0.0539  0.1092
    5MOL      C 4167   1.374   9.042  13.052 -0.1320 -0.0645  0.0113
    5MOL      C 4168   1.162   8.921  13.202 -0.0289 -0.1330 -0.0306
    5MOL      C 4169   1.094   8.681  13.214  0.0519 -0.1163  0.0440
    5MOL      C 4170   1.091   8.678  13.069  0.2434 -0.0367  0.0176
    5MOL      C 4171   1.119   8.794  12.991  0.0290  0.0391 -0.0395
    5MOL      C 4172   1.130   8.799  13.278 -0.0991  0.0467 -0.0877
    5MOL      C 4173   1.262   8.671  13.443  0.0205 -0.1127 -0.0290
    5MOL      C 4174   1.222   8.545  13.377 -0.0831 -0.2442 -0.1664
    5MOL      C 4175   1.142   8.551  13.264 -0.0848 -0.0273 -0.0541
    5MOL      C 4176   1.217   8.795  13.395  0.2127 -0.0574 -0.0256
    6MOL      C 4177   0.152   8.627  12.983 -0.1441  0.1751  0.1424
    6MOL      C 4178   0.251   8.611  12.879  0.1340  0.1743  0.0435
    6MOL      C 4179   0.175   8.719  13.089  0.2390  0.0762 -0.0107
    6MOL      C 4180   0.362   8.697  12.873  0.0308  0.0898 -0.0304
    6MOL      C 4181   0.487   8.628  12.881 -0.0429 -0.0198  0.0461
    6MOL      C 4182   0.263   8.471  12.838  0.1540  0.0203  0.1826
    6MOL      C 4183   0.395   8.425  12.824  0.1899  0.1631  0.0828
    6MOL      C 4184   0.508   8.513  12.809 -0.0639  0.3212  0.0755
    6MOL      C 4185   0.117   8.550  13.260 -0.0380  0.1790  0.0307
    6MOL      C 4186   0.156   8.459  13.156 -0.0447  0.0198  0.0741
    6MOL      C 4187   0.151   8.683  13.229  0.1010 -0.1309  0.0606
    6MOL      C 4188   0.124   8.488  13.023  0.0118 -0.0297 -0.0131
    6MOL      C 4189   0.176   8.391  12.926  0.0839  0.2313 -0.0691
    6MOL      C 4190   0.142   8.324  13.201  0.1111  0.0961 -0.2561
    6MOL      C 4191   0.202   8.231  13.114  0.0719  0.0371  0.1376
    6MOL      C 4192   0.220   8.264  12.972 -0.1179  0.0001 -0.0919
    6MOL      C 4193   0.311   8.682  13.421 -0.0442  0.0857 -0.0009
    6MOL      C 4194   0.268   8.544  13.452 -0.0267  0.0721  0.0430
    6MOL      C 4195   0.256   8.749  13.309  0.1847  0.3273  0.1295
    6MOL      C 4196   0.169   8.479  13.378 -0.0578  0.0699  0.2476
    6MOL      C 4197   0.183   8.338  13.340 -0.0392  0.1784 -0.1063
    6MOL      C 4198   0.383   8.469  13.500  0.1246 -0.1510  0.0228
    6MOL      C 4199   0.397   8.333  13.466 -0.1177  0.1434  0.0096
    6MOL      C 4200   0.296   8.267  13.385 -0.2029 -0.0573 -0.0547
    6MOL      C 4201   0.480   8.837  13.248 -0.1092 -0.0622  0.0640
    6MOL      C 4202   0.538   8.763  13.359  0.0372  0.1859  0.0662
    6MOL      C 4203   0.342   8.829  13.220 -0.1519  0.0424 -0.0481
    6MOL      C 4204   0.454   8.690  13.446 -0.0052 -0.0489  0.0340
    6MOL      C 4205   0.497   8.557  13.496 -0.0389  0.0729 -0.1203
    6MOL      C 4206   0.668   8.711  13.320 -0.0007 -0.0443  0.1821
    6MOL      C 4207   0.710   8.584  13.367 -0.1151 -0.1727  0.2171
    6MOL      C 4208   0.623   8.508  13.457 -0.2137 -0.1630  0.1771
    6MOL      C 4209   0.385   8.796  12.982  0.0153 -0.0846  0.1421
    6MOL      C 4210   0.530   8.807  13.006  0.2534  0.1593  0.0875
    6MOL      C 4211   0.290   8.810  13.085  0.1093  0.1831  0.0581
    6MOL      C 4212   0.575   8.827  13.137 -0.0662  0.0084  0.2394
    6MOL      C 4213   0.689   8.747  13.182  0.2017 -0.1127  0.1263
    6MOL      C 4214   0.598   8.714  12.916  0.0289 -0.0106 -0.0568
    6MOL      C 4215   0.710   8.641  12.957  0.0329  0.0367  0.0473
    6MOL      C 4216   0.757   8.656  13.095  0.2090 -0.0120  0.2387
    6MOL      C 4217   0.732   8.357  13.313  0.0171 -0.1935  0.0530
    6MOL      C 4218   0.779   8.491  13.279  0.0474 -0.2429  0.1193
    6MOL      C 4219   0.797   8.525  13.143  0.0411 -0.0228 -0.0107
    6MOL      C 4220   0.712   8.265  13.209 -0.1183  0.1475  0.0325
    6MOL      C 4221   0.506   8.185  13.323 -0.1009  0.0757  0.0400
    6MOL      C 4222   0.528   8.281  13.430 -0.0992 -0.0495  0.0831
    6MOL      C 4223   0.639   8.367  13.425 -0.0533 -0.0244  0.0191
    6MOL      C 4224   0.596   8.179  13.214  0.1351  0.1438  0.0263
    6MOL      C 4225   0.411   8.146  13.052 -0.1301  0.0841 -0.0689
    6MOL      C 4226   0.318   8.157  13.162  0.2061  0.0877 -0.1844
    6MOL      C 4227   0.364   8.177  13.294 -0.2026  0.1197  0.0561
    6MOL      C 4228   0.550   8.153  13.078  0.0274 -0.0872 -0.2667
    6MOL      C 4229   0.580   8.297  12.879  0.2423  0.0898  0.0490
    6MOL      C 4230   0.437   8.288  12.851 -0.0198 -0.1318  0.1807
    6MOL      C 4231   0.353   8.216  12.938  0.1940  0.1551  0.2034
    6MOL      C 4232   0.636   8.230  12.989 -0.1002 -0.0183 -0.0453
    6MOL      C 4233   0.780   8.425  13.037  0.1976 -0.1187  0.0046
    6MOL      C 4234   0.724   8.498  12.920  0.1368  0.0221  0.0274
    6MOL      C 4235   0.624   8.433  12.848 -0.0717  0.0750  0.0064
    6MOL      C 4236   0.737   8.297  13.071 -0.0023 -0.2068 -0.1599
    7MOL      C 4237   9.942   8.529  13.132  0.0770 -0.0530 -0.0428
    7MOL      C 4238   9.836   8.534  13.227 -0.2482  0.0618 -0.2190
    7MOL      C 4239   9.896   8.528  12.997  0.1495  0.1048 -0.3190
    7MOL      C 4240   9.726   8.617  13.210 -0.0003  0.0975 -0.2830
    7MOL      C 4241   9.618   8.586  13.304  0.1233 -0.0855  0.1425
    7MOL      C 4242   9.887   8.497  13.360  0.2219  0.1079 -0.3513
    7MOL      C 4243   9.780   8.460  13.444  0.2151  0.3601  0.0107
    7MOL      C 4244   9.643   8.506  13.417  0.0336  0.1674 -0.1704
    7MOL      C 4245   9.999   8.302  12.966  0.1499 -0.1649  0.0572
    7MOL      C 4246   9.992   8.297  13.110  0.0080 -0.2380 -0.2948
    7MOL      C 4247   9.925   8.410  12.915  0.0604  0.0832 -0.1386
    7MOL      C 4248  10.015   8.413  13.182  0.0249  0.0411  0.0042
    7MOL      C 4249   9.992   8.400  13.326 -0.0692 -0.0346 -0.1124
    7MOL      C 4250  10.040   8.171  13.160  0.0391  0.0904 -0.2184
    7MOL      C 4251  10.010   8.151  13.296  0.1537 -0.0164  0.0472
    7MOL      C 4252   9.985   8.269  13.381 -0.1338  0.0024  0.1339
    7MOL      C 4253   9.764   8.251  12.812 -0.0923 -0.1665  0.0669
    7MOL      C 4254   9.845   8.138  12.861  0.3165 -0.0771 -0.0092
    7MOL      C 4255   9.802   8.384  12.838 -0.0968 -0.1184 -0.1543
    7MOL      C 4256   9.961   8.164  12.936  0.1290 -0.2465  0.0867
    7MOL      C 4257   9.991   8.082  13.053 -0.0574 -0.2678 -0.1489
    7MOL      C 4258   9.755   8.031  12.898 -0.0095 -0.0117  0.1214
    7MOL      C 4259   9.783   7.952  13.011 -0.0481 -0.0423  0.4409
    7MOL      C 4260   9.902   7.979  13.092 -0.0505 -0.1817  0.0348
    7MOL      C 4261   9.565   8.444  12.877 -0.0123 -0.0305  0.1342
    7MOL      C 4262   9.526   8.307  12.849 -0.2377  0.0350 -0.0787
    7MOL      C 4263   9.700   8.485  12.867  0.0067  0.1752 -0.1052
    7MOL      C 4264   9.624   8.214  12.816 -0.1344  0.0203 -0.1072
    7MOL      C 4265   9.619   8.076  12.867 -0.1707  0.2006  0.2658
    7MOL      C 4266   9.419   8.268  12.939 -0.0293  0.0863 -0.1994
    7MOL      C 4267   9.413   8.137  12.990 -0.1764 -0.0867 -0.0308
    7MOL      C 4268   9.516   8.041  12.955 -0.1017  0.0583  0.1301
    7MOL      C 4269   9.672   8.612  13.075 -0.1094  0.1113 -0.4493
    7MOL      C 4270   9.529   8.579  13.083  0.1358 -0.1190 -0.0267
    7MOL      C 4271   9.757   8.572  12.968  0.0716 -0.1273 -0.1903
    7MOL      C 4272   9.479   8.492  12.985 -0.0250 -0.0279  0.1280
    7MOL      C 4273   9.391   8.380  13.022 -0.1762 -0.0882 -0.0390
    7MOL      C 4274   9.497   8.559  13.224 -0.1569 -0.1139 -0.0765
    7MOL      C 4275   9.413   8.454  13.257 -0.1114  0.1531 -0.0203
    7MOL      C 4276   9.354   8.364  13.157  0.1558 -0.0836  0.0243
    7MOL      C 4277   9.457   8.008  13.183 -0.2260  0.1966  0.1570
    7MOL      C 4278   9.376   8.117  13.131 -0.1365  0.1449  0.1391
    7MOL      C 4279   9.348   8.229  13.212 -0.1677  0.2620 -0.1694
    7MOL      C 4280   9.507   8.013  13.315 -0.0329  0.1263  0.3322
    7MOL      C 4281   9.725   7.922  13.238  0.1982  0.1827  0.1078
    7MOL      C 4282   9.674   7.916  13.101 -0.0040 -0.1261  0.1573
    7MOL      C 4283   9.545   7.962  13.075  0.0780 -0.1520  0.1760
    7MOL      C 4284   9.643   7.967  13.343 -0.0810  0.3353  0.2443
    7MOL      C 4285   9.833   8.095  13.437 -0.0948  0.2767  0.2794
    7MOL      C 4286   9.921   8.043  13.332  0.1580  0.1700  0.1445
    7MOL      C 4287   9.864   7.962  13.231  0.0342  0.2466  0.1685
    7MOL      C 4288   9.698   8.057  13.442 -0.2447  0.2473  0.2132
    7MOL      C 4289   9.633   8.287  13.506 -0.0557  0.2251  0.4129
    7MOL      C 4290   9.773   8.326  13.498  0.1666  0.3746 -0.2557
    7MOL      C 4291   9.872   8.233  13.467 -0.0343 -0.0516  0.1767
    7MOL      C 4292   9.596   8.155  13.478  0.0210 -0.0243  0.3125
    7MOL      C 4293   9.398   8.234  13.350 -0.1109  0.2311 -0.2618
    7MOL      C 4294   9.437   8.374  13.379  0.1400  0.2292 -0.1666
    7MOL      C 4295   9.552   8.399  13.456  0.2144  0.3035 -0.2142
    7MOL      C 4296   9.477   8.128  13.399 -0.0677 -0.0155  0.0609
    8MOL      C 4297   9.799   6.631  12.862  0.0296 -0.2779 -0.1154
    8MOL      C 4298   9.766   6.736  12.955  0.1095  0.1513  0.1474
    8MOL      C 4299   9.767   6.497  12.891 -0.0468 -0.4958  0.0024
    8MOL      C 4300   9.693   6.707  13.069 -0.1970 -0.1354 -0.0453
    8MOL      C 4301   9.764   6.736  13.191  0.0683  0.2002  0.0757
    8MOL      C 4302   9.871   6.840  12.956 -0.1915 -0.0980 -0.0529
    8MOL      C 4303   9.909   6.891  13.083 -0.0862 -0.1180 -0.1202
    8MOL      C 4304   9.834   6.855  13.202  0.1067 -0.0546 -0.2147
    8MOL      C 4305   9.993   6.424  12.828  0.1449 -0.0292 -0.0572
    8MOL      C 4306  10.026   6.559  12.860  0.1002 -0.1022  0.0185
    8MOL      C 4307   9.864   6.388  12.863 -0.0309 -0.4044  0.2790
    8MOL      C 4308   9.937   6.659  12.824 -0.0322  0.0026 -0.1244
    8MOL      C 4309   9.979   6.793  12.868 -0.1882 -0.0225  0.0682
    8MOL      C 4310  10.168   6.576  12.834 -0.0089 -0.1342 -0.3014
    8MOL      C 4311   0.003   6.700  12.885  0.0078 -0.0325 -0.3581
    8MOL      C 4312  10.116   6.809  12.907 -0.1011 -0.1050 -0.1565
    8MOL      C 4313   9.955   6.225  13.029 -0.2255 -0.0033  0.2026
    8MOL      C 4314  10.090   6.256  12.980  0.0259 -0.2221  0.1380
    8MOL      C 4315   9.846   6.295  12.975 -0.0607  0.0939  0.3111
    8MOL      C 4316  10.109   6.350  12.877  0.0962  0.0663  0.0918
    8MOL      C 4317   0.009   6.447  12.880  0.0276  0.0337 -0.0525
    8MOL      C 4318  10.186   6.251  13.092 -0.3197 -0.3795  0.1447
    8MOL      C 4319   0.081   6.346  13.095  0.0587 -0.2871  0.0114
    8MOL      C 4320   0.099   6.444  12.988  0.1531  0.0031 -0.0856
    8MOL      C 4321   9.747   6.319  13.200 -0.0190  0.2700 -0.1598
    8MOL      C 4322   9.862   6.251  13.259 -0.1205 -0.1031  0.3144
    8MOL      C 4323   9.736   6.340  13.061 -0.0382  0.0995  0.2953
    8MOL      C 4324   9.966   6.208  13.174  0.1466 -0.0815 -0.1317
    8MOL      C 4325  10.107   6.225  13.212  0.0139 -0.1473 -0.0209
    8MOL      C 4326   9.899   6.318  13.383  0.0561  0.0126 -0.0282
    8MOL      C 4327  10.034   6.337  13.419 -0.0389  0.0284  0.1556
    8MOL      C 4328  10.141   6.290  13.331  0.2346  0.0693  0.1310
    8MOL      C 4329   9.657   6.569  13.101 -0.1283  0.3450  0.0040
    8MOL      C 4330   9.659   6.546  13.247  0.1591 -0.0530  0.2320
    8MOL      C 4331   9.684   6.465  13.007 -0.0869  0.0617 -0.0894
    8MOL      C 4332   9.709   6.425  13.293  0.0922 -0.2463  0.0984
    8MOL      C 4333   9.802   6.423  13.406 -0.1892  0.0584  0.3421
    8MOL      C 4334   9.705   6.671  13.306  0.3254  0.2499  0.2276
    8MOL      C 4335   9.792   6.673  13.418  0.1738 -0.1673  0.0257
    8MOL      C 4336   9.843   6.545  13.466 -0.0013  0.2468  0.0003
    8MOL      C 4337   0.002   6.493  13.431  0.3244  0.1509 -0.1121
    8MOL      C 4338  10.078   6.461  13.483  0.2285 -0.0926 -0.3095
    8MOL      C 4339   9.984   6.563  13.503  0.3126  0.1248 -0.1390
    8MOL      C 4340   0.038   6.624  13.403  0.3076 -0.3914 -0.1383
    8MOL      C 4341   0.146   6.552  13.192 -0.1447 -0.1409 -0.1778
    8MOL      C 4342   0.111   6.415  13.222 -0.2251 -0.2445 -0.0689
    8MOL      C 4343   0.040   6.386  13.338  0.0643  0.2036  0.0118
    8MOL      C 4344   0.109   6.654  13.280 -0.1406 -0.0554 -0.4868
    8MOL      C 4345   0.055   6.799  13.091  0.1469  0.0658 -0.0730
    8MOL      C 4346   0.098   6.694  12.997 -0.0669  0.1172 -0.2689
    8MOL      C 4347   0.139   6.571  13.049 -0.2203 -0.2056 -0.0344
    8MOL      C 4348   0.067   6.784  13.230  0.2767  0.2036  0.0312
    8MOL      C 4349  10.057   6.896  13.265 -0.0354  0.0348  0.2042
    8MOL      C 4350  10.048   6.912  13.119 -0.2604  0.0752  0.0023
    8MOL      C 4351  10.151   6.869  13.034  0.0908 -0.1079 -0.1958
    8MOL      C 4352  10.167   6.829  13.319  0.3523  0.2630  0.0501
    8MOL      C 4353  10.020   6.702  13.477 -0.0039  0.0442 -0.1566
    8MOL      C 4354   9.904   6.774  13.424  0.1100 -0.1170  0.0802
    8MOL      C 4355   9.923   6.864  13.317  0.1342  0.1373  0.0880
    8MOL      C 4356  10.149   6.730  13.424  0.4129 -0.0456  0.1989
    9MOL      C 4357   9.299   7.516  12.847 -0.1749 -0.0880 -0.2298
    9MOL      C 4358   9.352   7.617  12.937 -0.1551 -0.1178  0.1196
    9MOL      C 4359   9.175   7.453  12.875  0.1199 -0.1935  0.1373
    9MOL      C 4360   9.276   7.665  13.046  0.2607 -0.3675 -0.2016
    9MOL      C 4361   9.342   7.677  13.177  0.1275 -0.2907  0.2063
    9MOL      C 4362   9.497   7.592  12.949  0.0805 -0.1858 -0.2292
    9MOL      C 4363   9.532   7.572  13.080 -0.0228 -0.0184  0.0434
    9MOL      C 4364   9.480   7.656  13.185  0.0378 -0.0023 -0.0132
    9MOL      C 4365   9.267   7.229  12.823 -0.0416  0.1360 -0.0935
    9MOL      C 4366   9.393   7.291  12.857  0.1018 -0.2382 -0.0381
    9MOL      C 4367   9.157   7.308  12.857 -0.1437 -0.0965  0.0229
    9MOL      C 4368   9.410   7.424  12.819 -0.0903  0.3476 -0.1660
    9MOL      C 4369   9.538   7.484  12.857  0.2700  0.0544 -0.0630
    9MOL      C 4370   9.498   7.197  12.837 -0.0945 -0.1905  0.0911
    9MOL      C 4371   9.618   7.247  12.890  0.0184 -0.2460  0.0479
    9MOL      C 4372   9.641   7.394  12.901  0.3608  0.1592 -0.0116
    9MOL      C 4373   9.088   7.137  13.024  0.0891  0.3853 -0.1750
    9MOL      C 4374   9.202   7.054  12.982  0.5664  0.0515  0.3001
    9MOL      C 4375   9.066   7.263  12.963 -0.0255  0.2853 -0.1176
    9MOL      C 4376   9.286   7.096  12.879  0.2454  0.2609 -0.0025
    9MOL      C 4377   9.430   7.075  12.883  0.0704 -0.2119 -0.1615
    9MOL      C 4378   9.256   6.988  13.100  0.1651  0.0981  0.1270
    9MOL      C 4379   9.394   6.971  13.109 -0.0453  0.1109  0.0274
    9MOL      C 4380   9.483   7.017  13.002  0.2401  0.0851 -0.3584
    9MOL      C 4381   9.018   7.364  13.184 -0.1493 -0.1056  0.1298
    9MOL      C 4382   9.047   7.237  13.245 -0.0725 -0.1100 -0.0254
    9MOL      C 4383   9.029   7.379  13.044 -0.2371  0.0444 -0.2660
    9MOL      C 4384   9.074   7.123  13.169  0.1852 -0.2435 -0.2769
    9MOL      C 4385   9.179   7.033  13.217 -0.0486 -0.2187  0.3053
    9MOL      C 4386   9.112   7.259  13.372  0.0093 -0.3410 -0.1856
    9MOL      C 4387   9.209   7.169  13.420  0.0494 -0.0599  0.1066
    9MOL      C 4388   9.247   7.055  13.337  0.2296  0.0429  0.2196
    9MOL      C 4389   9.151   7.594  13.077 -0.1885  0.2870 -0.0353
    9MOL      C 4390   9.132   7.585  13.221  0.0240  0.1011  0.0408
    9MOL      C 4391   9.096   7.496  12.990  0.0471 -0.2898  0.0195
    9MOL      C 4392   9.073   7.469  13.271  0.1828  0.0369  0.1641
    9MOL      C 4393   9.130   7.402  13.389 -0.0304  0.3063  0.0494
    9MOL      C 4394   9.255   7.632  13.284 -0.0629  0.1741  0.0180
    9MOL      C 4395   9.309   7.570  13.398 -0.1125 -0.1175  0.0277
    9MOL      C 4396   9.245   7.451  13.451 -0.0163 -0.0598  0.0460
    9MOL      C 4397   9.444   7.135  13.438  0.0218 -0.2074 -0.0632
    9MOL      C 4398   9.332   7.219  13.481 -0.0891 -0.3122 -0.0717
    9MOL      C 4399   9.348   7.357  13.495 -0.2139  0.0214  0.0151
    9MOL      C 4400   9.567   7.197  13.411 -0.1904 -0.0899  0.1022
    9MOL      C 4401   9.595   7.054  13.209 -0.0004  0.1525  0.1795
    9MOL      C 4402   9.467   6.991  13.237 -0.1091  0.2622  0.1143
    9MOL      C 4403   9.390   7.033  13.349  0.1755  0.1674 -0.0350
    9MOL      C 4404   9.643   7.154  13.294 -0.1797  0.1050  0.1031
    9MOL      C 4405   9.723   7.284  13.099 -0.0948 -0.1737  0.2034
    9MOL      C 4406   9.673   7.181  13.009  0.0271  0.0455 -0.1001
    9MOL      C 4407   9.604   7.071  13.063  0.0652  0.3061 -0.0418
    9MOL      C 4408   9.709   7.270  13.238 -0.0917  0.2530  0.1066
    9MOL      C 4409   9.652   7.512  13.259 -0.0593  0.1127 -0.0233
    9MOL      C 4410   9.662   7.521  13.114  0.0207  0.1072  0.0131
    9MOL      C 4411   9.702   7.414  13.033 -0.1345 -0.0141  0.0594
    9MOL      C 4412   9.674   7.387  13.320  0.1111  0.1208 -0.1407
    9MOL      C 4413   9.479   7.420  13.468  0.1036  0.1349 -0.1261
    9MOL      C 4414   9.456   7.553  13.407 -0.0403 -0.2623 -0.2957
    9MOL      C 4415   9.539   7.597  13.304  0.1413  0.0887 -0.0345
    9MOL      C 4416   9.586   7.341  13.425 -0.0655 -0.3987  0.1742
   10MOL      C 4417   9.732   9.428  12.931 -0.0183  0.0072 -0.2049
   10MOL      C 4418   9.846   9.400  12.849 -0.1006  0.1479 -0.2501
   10MOL      C 4419   9.749   9.514  13.041  0.3266  0.3796  0.1038
   10MOL      C 4420   9.969   9.472  12.857  0.2195 -0.0157  0.2107
   10MOL      C 4421  10.093   9.395  12.847  0.3574 -0.0907  0.1680
   10MOL      C 4422   9.844   9.257  12.810  0.1725  0.2122  0.1259
   10MOL      C 4423   9.966   9.196  12.843  0.0863 -0.0958  0.1565
   10MOL      C 4424  10.089   9.259  12.813  0.0833 -0.2222  0.0027
   10MOL      C 4425   9.636   9.352  13.193 -0.0945 -0.0967  0.2916
   10MOL      C 4426   9.679   9.259  13.094  0.0466 -0.0456  0.1678
   10MOL      C 4427   9.695   9.476  13.172 -0.0410 -0.2507  0.1837
   10MOL      C 4428   9.676   9.296  12.962  0.1327  0.1576 -0.2729
   10MOL      C 4429   9.725   9.192  12.869 -0.0725  0.2102  0.0261
   10MOL      C 4430   9.636   9.128  13.133 -0.1585 -0.0082  0.0902
   10MOL      C 4431   9.694   9.027  13.056 -0.1945 -0.1771  0.1938
   10MOL      C 4432   9.743   9.060  12.921 -0.2561  0.0641  0.1310
   10MOL      C 4433   9.814   9.454  13.388  0.0191 -0.4122  0.0892
   10MOL      C 4434   9.743   9.324  13.412 -0.4365 -0.0032  0.0952
   10MOL      C 4435   9.790   9.527  13.273 -0.1640  0.3445 -0.0677
   10MOL      C 4436   9.652   9.276  13.316 -0.0292 -0.0454 -0.1670
   10MOL      C 4437   9.652   9.134  13.278  0.0938 -0.1429  0.0105
   10MOL      C 4438   9.839   9.231  13.471  0.0579 -0.2741 -0.0576
   10MOL      C 4439   9.837   9.094  13.438 -0.1378 -0.1854  0.0306
   10MOL      C 4440   9.744   9.045  13.338  0.4967  0.1867 -0.3550
   10MOL      C 4441  10.030   9.574  13.250  0.1159 -0.0347  0.2307
   10MOL      C 4442  10.056   9.501  13.372 -0.0280 -0.0263  0.1110
   10MOL      C 4443   9.900   9.593  13.200  0.1741 -0.0498 -0.2015
   10MOL      C 4444   9.949   9.441  13.442 -0.3505 -0.3543  0.0753
   10MOL      C 4445   9.963   9.301  13.488  0.2322 -0.3969 -0.1720
   10MOL      C 4446  10.179   9.428  13.352  0.0629 -0.0810  0.0122
   10MOL      C 4447  10.195   9.296  13.403  0.0155  0.2779 -0.0680
   10MOL      C 4448  10.083   9.231  13.469  0.0364  0.0475  0.3359
   10MOL      C 4449   9.987   9.557  12.973  0.1355 -0.0002 -0.1341
   10MOL      C 4450  10.122   9.550  13.023  0.0717  0.0303  0.2176
   10MOL      C 4451   9.875   9.584  13.058  0.3709  0.2475  0.0690
   10MOL      C 4452  10.144   9.556  13.162 -0.2171  0.0724  0.0512
   10MOL      C 4453   0.028   9.462  13.224  0.3619 -0.0848  0.1394
   10MOL      C 4454  10.190   9.449  12.944  0.0281 -0.1043  0.0936
   10MOL      C 4455   0.063   9.353  13.008 -0.2449 -0.0659 -0.1110
   10MOL      C 4456   0.095   9.364  13.149  0.1089  0.0416 -0.3109
   10MOL      C 4457  10.195   9.068  13.347  0.0158 -0.1353  0.0738
   10MOL      C 4458   0.056   9.193  13.326 -0.0650 -0.0387  0.1560
   10MOL      C 4459   0.108   9.227  13.200  0.0134 -0.0635  0.0827
   10MOL      C 4460  10.179   8.981  13.239  0.1528 -0.2115  0.2568
   10MOL      C 4461   9.948   8.928  13.307 -0.1875 -0.0184 -0.0887
   10MOL      C 4462   9.961   9.022  13.420  0.2658  0.0641  0.1048
   10MOL      C 4463  10.084   9.089  13.438 -0.4427  0.4674  0.0304
   10MOL      C 4464  10.054   8.914  13.217 -0.1117 -0.1267  0.1058
   10MOL      C 4465   9.897   8.911  13.027 -0.0841 -0.4132 -0.1990
   10MOL      C 4466   9.784   8.932  13.120  0.1626 -0.0554  0.0545
   10MOL      C 4467   9.814   8.944  13.257 -0.0588  0.0923  0.0423
   10MOL      C 4468  10.029   8.902  13.075 -0.0845  0.0069  0.2478
   10MOL      C 4469  10.116   9.038  12.891  0.0639 -0.0686 -0.0647
   10MOL      C 4470   9.979   9.054  12.844  0.4299  0.3277 -0.1455
   10MOL      C 4471   9.871   8.988  12.905  0.0166  0.1418 -0.1410
   10MOL      C 4472  10.142   8.963  13.005 -0.0584  0.0029 -0.0152
   10MOL      C 4473   0.094   9.131  13.089 -0.1459 -0.0168  0.0721
   10MOL      C 4474   0.070   9.212  12.967  0.3541 -0.2257 -0.0828
   10MOL      C 4475  10.184   9.168  12.877  0.1796  0.2236  0.3465
   10MOL      C 4476   0.028   9.007  13.106 -0.4504  0.0585 -0.1111
   11MOL      C 4477   2.261   2.581  13.512  0.1571  0.1863  0.6674
   11MOL      C 4478   2.386   2.644  13.478  0.8457  0.4040  0.9853
   11MOL      C 4479   2.251   2.442  13.515  0.2967  0.9864  0.7801
   11MOL      C 4480   2.498   2.567  13.447  0.6597  0.7050  0.2712
   11MOL      C 4481   2.584   2.605  13.337  0.0420  0.3256  0.6547
   11MOL      C 4482   2.357   2.763  13.399  0.7641  0.1281  0.1837
   11MOL      C 4483   2.440   2.799  13.293  0.9989  0.2220  0.8996
   11MOL      C 4484   2.556   2.718  13.261  0.4699  0.1324  0.9044
   11MOL      C 4485   2.032   2.451  13.405  0.4620  0.4208  0.3376
   11MOL      C 4486   2.041   2.596  13.401  0.4242  0.3889  0.6767
   11MOL      C 4487   2.134   2.376  13.460  0.2098  0.3418  0.0340
   11MOL      C 4488   2.153   2.659  13.455  0.9494  0.3798  0.9810
   11MOL      C 4489   2.212   2.772  13.384  0.9189  0.5176  0.5308
   11MOL      C 4490   1.983   2.643  13.277  0.9028  0.7104  0.1460
   11MOL      C 4491   2.040   2.751  13.209  0.1708  0.5452  0.4845
   11MOL      C 4492   2.158   2.817  13.264  0.6156  0.6347  0.3557
   11MOL      C 4493   2.118   2.212  13.276  0.0555  0.9671  0.5508
   11MOL      C 4494   2.010   2.291  13.218  0.8818  0.7935  0.1398
   11MOL      C 4495   2.178   2.254  13.394  0.7685  0.8818  0.7588
   11MOL      C 4496   1.968   2.409  13.281  0.2068  0.7571  0.7605
   11MOL      C 4497   1.938   2.526  13.203  0.1956  0.6017  0.4260
   11MOL      C 4498   2.025   2.288  13.074  0.9523  0.8106  0.6602
   11MOL      C 4499   1.996   2.401  12.999  0.3573  0.2424  0.9766
   11MOL      C 4500   1.952   2.523  13.063  0.4635  0.8260  0.2313
   11MOL      C 4501   2.400   2.194  13.304  0.6609  0.5880  0.7532
   11MOL      C 4502   2.337   2.152  13.181  0.0293  0.7650  0.9548
   11MOL      C 4503   2.323   2.245  13.409  0.8296  0.7663  0.6219
   11MOL      C 4504   2.199   2.160  13.167  0.5235  0.3427  0.7880
   11MOL      C 4505   2.141   2.207  13.042  0.4236  0.2158  0.7280
   11MOL      C 4506   2.423   2.189  13.071  0.0859  0.4898  0.9799
   11MOL      C 4507   2.368   2.233  12.950  0.1956  0.6872  0.4345
   11MOL      C 4508   2.224   2.243  12.936  0.9679  0.2707  0.6330
   11MOL      C 4509   2.488   2.422  13.450  0.9540  0.4221  0.6890
   11MOL      C 4510   2.569   2.370  13.341  0.3137  0.3504  0.2650
   11MOL      C 4511   2.367   2.361  13.483  0.0682  0.8246  0.9635
   11MOL      C 4512   2.525   2.258  13.270  0.6002  0.6214  0.7236
   11MOL      C 4513   2.540   2.255  13.125  0.0677  0.4806  0.1325
   11MOL      C 4514   2.628   2.482  13.271  0.3338  0.0699  0.2614
   11MOL      C 4515   2.642   2.479  13.133  0.5705  0.2032  0.4784
   11MOL      C 4516   2.597   2.362  13.058  0.8315  0.3902  0.0900
   11MOL      C 4517   2.319   2.425  12.823  0.9227  0.6644  0.5559
   11MOL      C 4518   2.427   2.346  12.881  0.4624  0.3665  0.6584
   11MOL      C 4519   2.539   2.409  12.933  0.7794  0.8980  0.1548
   11MOL      C 4520   2.328   2.563  12.820  0.0145  0.2459  0.6258
   11MOL      C 4521   2.092   2.583  12.885  0.3488  0.2435  0.4550
   11MOL      C 4522   2.082   2.438  12.888  0.9161  0.8987  0.9562
   11MOL      C 4523   2.193   2.361  12.857  0.4322  0.2191  0.1881
   11MOL      C 4524   2.212   2.644  12.852  0.9072  0.6263  0.4431
   11MOL      C 4525   2.180   2.811  13.031  0.7634  0.8441  0.9482
   11MOL      C 4526   2.054   2.746  13.065  0.2821  0.2953  0.6884
   11MOL      C 4527   2.011   2.635  12.994  0.5793  0.0717  0.5364
   11MOL      C 4528   2.257   2.761  12.927  0.0543  0.8642  0.1401
   11MOL      C 4529   2.462   2.793  13.059  0.3552  0.8483  0.8763
   11MOL      C 4530   2.382   2.845  13.168  0.3808  0.0573  0.7545
   11MOL      C 4531   2.244   2.854  13.154  0.7324  0.6651  0.9144
   11MOL      C 4532   2.402   2.752  12.941  0.8526  0.6547  0.6154
   11MOL      C 4533   2.549   2.554  12.930  0.9725  0.5956  0.8684
   11MOL      C 4534   2.612   2.598  13.054  0.6079  0.4931  0.1113
   11MOL      C 4535   2.570   2.713  13.117  0.3891  0.8965  0.4273
   11MOL      C 4536   2.445   2.630  12.875  0.9118  0.5895  0.4129
  10.20960   10.06950   25.00000    0.00000    0.00000    0.00000    0.00000    0.00000    0.00000
