; A gromacs top from tpr generated by TprParser.TprMakeTop
; NOTE: Testing

#include "amber99sb-ildn.ff/forcefield.itp"

[ atomtypes ]
; name     mass       charge  ptype sigma   epsilon
       NTL  14.007000   0.000000 A   0.3296   0.8368
      CTL5  12.011000   0.000000 A   0.3671   0.3347
        HL   1.008000   0.000000 A   0.1247   0.1925
      CTL2  12.011000   0.000000 A   0.3581   0.2343
      HAL2   1.008000   0.000000 A   0.2388   0.1172
        PL  30.974001   0.000000 A   0.3831   2.4476
       O2L  15.999400   0.000000 A   0.3029   0.5021
      OSLP  15.999400   0.000000 A   0.2940   0.4184
      CTL1  12.011000   0.000000 A   0.4054   0.0837
      HAL1   1.008000   0.000000 A   0.2352   0.0920
       OSL  15.999400   0.000000 A   0.2940   0.4184
        CL  12.011000   0.000000 A   0.3564   0.2929
       OBL  15.999400   0.000000 A   0.3029   0.5021
      CTL3  12.011000   0.000000 A   0.3635   0.3264
      HAL3   1.008000   0.000000 A   0.2388   0.1004
       POT  39.098301   0.000000 A   0.3143   0.3640
       CLA  35.450001   0.000000 A   0.4045   0.6276
        OT  15.999400   0.000000 A   0.3151   0.6364
        HT   1.008000   0.000000 A   0.0400   0.1925

[ moleculetype ]
;name  nrexcl
MOL    3

[ atoms ]
;   nr       type  resi  res  atom  cgnr     charge      mass
    1        NTL     1  DPPC     N     1  -0.600000  14.007000
    2       CTL5     1  DPPC   C13     2  -0.350000  12.011000
    3         HL     1  DPPC  H13A     3   0.250000   1.008000
    4         HL     1  DPPC  H13B     4   0.250000   1.008000
    5         HL     1  DPPC  H13C     5   0.250000   1.008000
    6       CTL5     1  DPPC   C14     6  -0.350000  12.011000
    7         HL     1  DPPC  H14A     7   0.250000   1.008000
    8         HL     1  DPPC  H14B     8   0.250000   1.008000
    9         HL     1  DPPC  H14C     9   0.250000   1.008000
   10       CTL5     1  DPPC   C15    10  -0.350000  12.011000
   11         HL     1  DPPC  H15A    11   0.250000   1.008000
   12         HL     1  DPPC  H15B    12   0.250000   1.008000
   13         HL     1  DPPC  H15C    13   0.250000   1.008000
   14       CTL2     1  DPPC   C12    14  -0.100000  12.011000
   15         HL     1  DPPC  H12A    15   0.250000   1.008000
   16         HL     1  DPPC  H12B    16   0.250000   1.008000
   17       CTL2     1  DPPC   C11    17  -0.080000  12.011000
   18       HAL2     1  DPPC  H11A    18   0.090000   1.008000
   19       HAL2     1  DPPC  H11B    19   0.090000   1.008000
   20         PL     1  DPPC     P    20   1.500000  30.974001
   21        O2L     1  DPPC   O13    21  -0.780000  15.999400
   22        O2L     1  DPPC   O14    22  -0.780000  15.999400
   23       OSLP     1  DPPC   O11    23  -0.570000  15.999400
   24       OSLP     1  DPPC   O12    24  -0.570000  15.999400
   25       CTL2     1  DPPC    C1    25  -0.080000  12.011000
   26       HAL2     1  DPPC    HA    26   0.090000   1.008000
   27       HAL2     1  DPPC    HB    27   0.090000   1.008000
   28       CTL1     1  DPPC    C2    28   0.170000  12.011000
   29       HAL1     1  DPPC    HS    29   0.090000   1.008000
   30        OSL     1  DPPC   O21    30  -0.490000  15.999400
   31         CL     1  DPPC   C21    31   0.900000  12.011000
   32        OBL     1  DPPC   O22    32  -0.630000  15.999400
   33       CTL2     1  DPPC   C22    33  -0.220000  12.011000
   34       HAL2     1  DPPC   H2R    34   0.090000   1.008000
   35       HAL2     1  DPPC   H2S    35   0.090000   1.008000
   36       CTL2     1  DPPC    C3    36   0.080000  12.011000
   37       HAL2     1  DPPC    HX    37   0.090000   1.008000
   38       HAL2     1  DPPC    HY    38   0.090000   1.008000
   39        OSL     1  DPPC   O31    39  -0.490000  15.999400
   40         CL     1  DPPC   C31    40   0.900000  12.011000
   41        OBL     1  DPPC   O32    41  -0.630000  15.999400
   42       CTL2     1  DPPC   C32    42  -0.220000  12.011000
   43       HAL2     1  DPPC   H2X    43   0.090000   1.008000
   44       HAL2     1  DPPC   H2Y    44   0.090000   1.008000
   45       CTL2     1  DPPC   C23    45  -0.180000  12.011000
   46       HAL2     1  DPPC   H3R    46   0.090000   1.008000
   47       HAL2     1  DPPC   H3S    47   0.090000   1.008000
   48       CTL2     1  DPPC   C24    48  -0.180000  12.011000
   49       HAL2     1  DPPC   H4R    49   0.090000   1.008000
   50       HAL2     1  DPPC   H4S    50   0.090000   1.008000
   51       CTL2     1  DPPC   C25    51  -0.180000  12.011000
   52       HAL2     1  DPPC   H5R    52   0.090000   1.008000
   53       HAL2     1  DPPC   H5S    53   0.090000   1.008000
   54       CTL2     1  DPPC   C26    54  -0.180000  12.011000
   55       HAL2     1  DPPC   H6R    55   0.090000   1.008000
   56       HAL2     1  DPPC   H6S    56   0.090000   1.008000
   57       CTL2     1  DPPC   C27    57  -0.180000  12.011000
   58       HAL2     1  DPPC   H7R    58   0.090000   1.008000
   59       HAL2     1  DPPC   H7S    59   0.090000   1.008000
   60       CTL2     1  DPPC   C28    60  -0.180000  12.011000
   61       HAL2     1  DPPC   H8R    61   0.090000   1.008000
   62       HAL2     1  DPPC   H8S    62   0.090000   1.008000
   63       CTL2     1  DPPC   C29    63  -0.180000  12.011000
   64       HAL2     1  DPPC   H9R    64   0.090000   1.008000
   65       HAL2     1  DPPC   H9S    65   0.090000   1.008000
   66       CTL2     1  DPPC  C210    66  -0.180000  12.011000
   67       HAL2     1  DPPC  H10R    67   0.090000   1.008000
   68       HAL2     1  DPPC  H10S    68   0.090000   1.008000
   69       CTL2     1  DPPC  C211    69  -0.180000  12.011000
   70       HAL2     1  DPPC  H11R    70   0.090000   1.008000
   71       HAL2     1  DPPC  H11S    71   0.090000   1.008000
   72       CTL2     1  DPPC  C212    72  -0.180000  12.011000
   73       HAL2     1  DPPC  H12R    73   0.090000   1.008000
   74       HAL2     1  DPPC  H12S    74   0.090000   1.008000
   75       CTL2     1  DPPC  C213    75  -0.180000  12.011000
   76       HAL2     1  DPPC  H13R    76   0.090000   1.008000
   77       HAL2     1  DPPC  H13S    77   0.090000   1.008000
   78       CTL2     1  DPPC  C214    78  -0.180000  12.011000
   79       HAL2     1  DPPC  H14R    79   0.090000   1.008000
   80       HAL2     1  DPPC  H14S    80   0.090000   1.008000
   81       CTL2     1  DPPC  C215    81  -0.180000  12.011000
   82       HAL2     1  DPPC  H15R    82   0.090000   1.008000
   83       HAL2     1  DPPC  H15S    83   0.090000   1.008000
   84       CTL3     1  DPPC  C216    84  -0.270000  12.011000
   85       HAL3     1  DPPC  H16R    85   0.090000   1.008000
   86       HAL3     1  DPPC  H16S    86   0.090000   1.008000
   87       HAL3     1  DPPC  H16T    87   0.090000   1.008000
   88       CTL2     1  DPPC   C33    88  -0.180000  12.011000
   89       HAL2     1  DPPC   H3X    89   0.090000   1.008000
   90       HAL2     1  DPPC   H3Y    90   0.090000   1.008000
   91       CTL2     1  DPPC   C34    91  -0.180000  12.011000
   92       HAL2     1  DPPC   H4X    92   0.090000   1.008000
   93       HAL2     1  DPPC   H4Y    93   0.090000   1.008000
   94       CTL2     1  DPPC   C35    94  -0.180000  12.011000
   95       HAL2     1  DPPC   H5X    95   0.090000   1.008000
   96       HAL2     1  DPPC   H5Y    96   0.090000   1.008000
   97       CTL2     1  DPPC   C36    97  -0.180000  12.011000
   98       HAL2     1  DPPC   H6X    98   0.090000   1.008000
   99       HAL2     1  DPPC   H6Y    99   0.090000   1.008000
  100       CTL2     1  DPPC   C37   100  -0.180000  12.011000
  101       HAL2     1  DPPC   H7X   101   0.090000   1.008000
  102       HAL2     1  DPPC   H7Y   102   0.090000   1.008000
  103       CTL2     1  DPPC   C38   103  -0.180000  12.011000
  104       HAL2     1  DPPC   H8X   104   0.090000   1.008000
  105       HAL2     1  DPPC   H8Y   105   0.090000   1.008000
  106       CTL2     1  DPPC   C39   106  -0.180000  12.011000
  107       HAL2     1  DPPC   H9X   107   0.090000   1.008000
  108       HAL2     1  DPPC   H9Y   108   0.090000   1.008000
  109       CTL2     1  DPPC  C310   109  -0.180000  12.011000
  110       HAL2     1  DPPC  H10X   110   0.090000   1.008000
  111       HAL2     1  DPPC  H10Y   111   0.090000   1.008000
  112       CTL2     1  DPPC  C311   112  -0.180000  12.011000
  113       HAL2     1  DPPC  H11X   113   0.090000   1.008000
  114       HAL2     1  DPPC  H11Y   114   0.090000   1.008000
  115       CTL2     1  DPPC  C312   115  -0.180000  12.011000
  116       HAL2     1  DPPC  H12X   116   0.090000   1.008000
  117       HAL2     1  DPPC  H12Y   117   0.090000   1.008000
  118       CTL2     1  DPPC  C313   118  -0.180000  12.011000
  119       HAL2     1  DPPC  H13X   119   0.090000   1.008000
  120       HAL2     1  DPPC  H13Y   120   0.090000   1.008000
  121       CTL2     1  DPPC  C314   121  -0.180000  12.011000
  122       HAL2     1  DPPC  H14X   122   0.090000   1.008000
  123       HAL2     1  DPPC  H14Y   123   0.090000   1.008000
  124       CTL2     1  DPPC  C315   124  -0.180000  12.011000
  125       HAL2     1  DPPC  H15X   125   0.090000   1.008000
  126       HAL2     1  DPPC  H15Y   126   0.090000   1.008000
  127       CTL3     1  DPPC  C316   127  -0.270000  12.011000
  128       HAL3     1  DPPC  H16X   128   0.090000   1.008000
  129       HAL3     1  DPPC  H16Y   129   0.090000   1.008000
  130       HAL3     1  DPPC  H16Z   130   0.090000   1.008000
  131        NTL     2  DPPC     N   131  -0.600000  14.007000
  132       CTL5     2  DPPC   C13   132  -0.350000  12.011000
  133         HL     2  DPPC  H13A   133   0.250000   1.008000
  134         HL     2  DPPC  H13B   134   0.250000   1.008000
  135         HL     2  DPPC  H13C   135   0.250000   1.008000
  136       CTL5     2  DPPC   C14   136  -0.350000  12.011000
  137         HL     2  DPPC  H14A   137   0.250000   1.008000
  138         HL     2  DPPC  H14B   138   0.250000   1.008000
  139         HL     2  DPPC  H14C   139   0.250000   1.008000
  140       CTL5     2  DPPC   C15   140  -0.350000  12.011000
  141         HL     2  DPPC  H15A   141   0.250000   1.008000
  142         HL     2  DPPC  H15B   142   0.250000   1.008000
  143         HL     2  DPPC  H15C   143   0.250000   1.008000
  144       CTL2     2  DPPC   C12   144  -0.100000  12.011000
  145         HL     2  DPPC  H12A   145   0.250000   1.008000
  146         HL     2  DPPC  H12B   146   0.250000   1.008000
  147       CTL2     2  DPPC   C11   147  -0.080000  12.011000
  148       HAL2     2  DPPC  H11A   148   0.090000   1.008000
  149       HAL2     2  DPPC  H11B   149   0.090000   1.008000
  150         PL     2  DPPC     P   150   1.500000  30.974001
  151        O2L     2  DPPC   O13   151  -0.780000  15.999400
  152        O2L     2  DPPC   O14   152  -0.780000  15.999400
  153       OSLP     2  DPPC   O11   153  -0.570000  15.999400
  154       OSLP     2  DPPC   O12   154  -0.570000  15.999400
  155       CTL2     2  DPPC    C1   155  -0.080000  12.011000
  156       HAL2     2  DPPC    HA   156   0.090000   1.008000
  157       HAL2     2  DPPC    HB   157   0.090000   1.008000
  158       CTL1     2  DPPC    C2   158   0.170000  12.011000
  159       HAL1     2  DPPC    HS   159   0.090000   1.008000
  160        OSL     2  DPPC   O21   160  -0.490000  15.999400
  161         CL     2  DPPC   C21   161   0.900000  12.011000
  162        OBL     2  DPPC   O22   162  -0.630000  15.999400
  163       CTL2     2  DPPC   C22   163  -0.220000  12.011000
  164       HAL2     2  DPPC   H2R   164   0.090000   1.008000
  165       HAL2     2  DPPC   H2S   165   0.090000   1.008000
  166       CTL2     2  DPPC    C3   166   0.080000  12.011000
  167       HAL2     2  DPPC    HX   167   0.090000   1.008000
  168       HAL2     2  DPPC    HY   168   0.090000   1.008000
  169        OSL     2  DPPC   O31   169  -0.490000  15.999400
  170         CL     2  DPPC   C31   170   0.900000  12.011000
  171        OBL     2  DPPC   O32   171  -0.630000  15.999400
  172       CTL2     2  DPPC   C32   172  -0.220000  12.011000
  173       HAL2     2  DPPC   H2X   173   0.090000   1.008000
  174       HAL2     2  DPPC   H2Y   174   0.090000   1.008000
  175       CTL2     2  DPPC   C23   175  -0.180000  12.011000
  176       HAL2     2  DPPC   H3R   176   0.090000   1.008000
  177       HAL2     2  DPPC   H3S   177   0.090000   1.008000
  178       CTL2     2  DPPC   C24   178  -0.180000  12.011000
  179       HAL2     2  DPPC   H4R   179   0.090000   1.008000
  180       HAL2     2  DPPC   H4S   180   0.090000   1.008000
  181       CTL2     2  DPPC   C25   181  -0.180000  12.011000
  182       HAL2     2  DPPC   H5R   182   0.090000   1.008000
  183       HAL2     2  DPPC   H5S   183   0.090000   1.008000
  184       CTL2     2  DPPC   C26   184  -0.180000  12.011000
  185       HAL2     2  DPPC   H6R   185   0.090000   1.008000
  186       HAL2     2  DPPC   H6S   186   0.090000   1.008000
  187       CTL2     2  DPPC   C27   187  -0.180000  12.011000
  188       HAL2     2  DPPC   H7R   188   0.090000   1.008000
  189       HAL2     2  DPPC   H7S   189   0.090000   1.008000
  190       CTL2     2  DPPC   C28   190  -0.180000  12.011000
  191       HAL2     2  DPPC   H8R   191   0.090000   1.008000
  192       HAL2     2  DPPC   H8S   192   0.090000   1.008000
  193       CTL2     2  DPPC   C29   193  -0.180000  12.011000
  194       HAL2     2  DPPC   H9R   194   0.090000   1.008000
  195       HAL2     2  DPPC   H9S   195   0.090000   1.008000
  196       CTL2     2  DPPC  C210   196  -0.180000  12.011000
  197       HAL2     2  DPPC  H10R   197   0.090000   1.008000
  198       HAL2     2  DPPC  H10S   198   0.090000   1.008000
  199       CTL2     2  DPPC  C211   199  -0.180000  12.011000
  200       HAL2     2  DPPC  H11R   200   0.090000   1.008000
  201       HAL2     2  DPPC  H11S   201   0.090000   1.008000
  202       CTL2     2  DPPC  C212   202  -0.180000  12.011000
  203       HAL2     2  DPPC  H12R   203   0.090000   1.008000
  204       HAL2     2  DPPC  H12S   204   0.090000   1.008000
  205       CTL2     2  DPPC  C213   205  -0.180000  12.011000
  206       HAL2     2  DPPC  H13R   206   0.090000   1.008000
  207       HAL2     2  DPPC  H13S   207   0.090000   1.008000
  208       CTL2     2  DPPC  C214   208  -0.180000  12.011000
  209       HAL2     2  DPPC  H14R   209   0.090000   1.008000
  210       HAL2     2  DPPC  H14S   210   0.090000   1.008000
  211       CTL2     2  DPPC  C215   211  -0.180000  12.011000
  212       HAL2     2  DPPC  H15R   212   0.090000   1.008000
  213       HAL2     2  DPPC  H15S   213   0.090000   1.008000
  214       CTL3     2  DPPC  C216   214  -0.270000  12.011000
  215       HAL3     2  DPPC  H16R   215   0.090000   1.008000
  216       HAL3     2  DPPC  H16S   216   0.090000   1.008000
  217       HAL3     2  DPPC  H16T   217   0.090000   1.008000
  218       CTL2     2  DPPC   C33   218  -0.180000  12.011000
  219       HAL2     2  DPPC   H3X   219   0.090000   1.008000
  220       HAL2     2  DPPC   H3Y   220   0.090000   1.008000
  221       CTL2     2  DPPC   C34   221  -0.180000  12.011000
  222       HAL2     2  DPPC   H4X   222   0.090000   1.008000
  223       HAL2     2  DPPC   H4Y   223   0.090000   1.008000
  224       CTL2     2  DPPC   C35   224  -0.180000  12.011000
  225       HAL2     2  DPPC   H5X   225   0.090000   1.008000
  226       HAL2     2  DPPC   H5Y   226   0.090000   1.008000
  227       CTL2     2  DPPC   C36   227  -0.180000  12.011000
  228       HAL2     2  DPPC   H6X   228   0.090000   1.008000
  229       HAL2     2  DPPC   H6Y   229   0.090000   1.008000
  230       CTL2     2  DPPC   C37   230  -0.180000  12.011000
  231       HAL2     2  DPPC   H7X   231   0.090000   1.008000
  232       HAL2     2  DPPC   H7Y   232   0.090000   1.008000
  233       CTL2     2  DPPC   C38   233  -0.180000  12.011000
  234       HAL2     2  DPPC   H8X   234   0.090000   1.008000
  235       HAL2     2  DPPC   H8Y   235   0.090000   1.008000
  236       CTL2     2  DPPC   C39   236  -0.180000  12.011000
  237       HAL2     2  DPPC   H9X   237   0.090000   1.008000
  238       HAL2     2  DPPC   H9Y   238   0.090000   1.008000
  239       CTL2     2  DPPC  C310   239  -0.180000  12.011000
  240       HAL2     2  DPPC  H10X   240   0.090000   1.008000
  241       HAL2     2  DPPC  H10Y   241   0.090000   1.008000
  242       CTL2     2  DPPC  C311   242  -0.180000  12.011000
  243       HAL2     2  DPPC  H11X   243   0.090000   1.008000
  244       HAL2     2  DPPC  H11Y   244   0.090000   1.008000
  245       CTL2     2  DPPC  C312   245  -0.180000  12.011000
  246       HAL2     2  DPPC  H12X   246   0.090000   1.008000
  247       HAL2     2  DPPC  H12Y   247   0.090000   1.008000
  248       CTL2     2  DPPC  C313   248  -0.180000  12.011000
  249       HAL2     2  DPPC  H13X   249   0.090000   1.008000
  250       HAL2     2  DPPC  H13Y   250   0.090000   1.008000
  251       CTL2     2  DPPC  C314   251  -0.180000  12.011000
  252       HAL2     2  DPPC  H14X   252   0.090000   1.008000
  253       HAL2     2  DPPC  H14Y   253   0.090000   1.008000
  254       CTL2     2  DPPC  C315   254  -0.180000  12.011000
  255       HAL2     2  DPPC  H15X   255   0.090000   1.008000
  256       HAL2     2  DPPC  H15Y   256   0.090000   1.008000
  257       CTL3     2  DPPC  C316   257  -0.270000  12.011000
  258       HAL3     2  DPPC  H16X   258   0.090000   1.008000
  259       HAL3     2  DPPC  H16Y   259   0.090000   1.008000
  260       HAL3     2  DPPC  H16Z   260   0.090000   1.008000
  261        NTL     3  DPPC     N   261  -0.600000  14.007000
  262       CTL5     3  DPPC   C13   262  -0.350000  12.011000
  263         HL     3  DPPC  H13A   263   0.250000   1.008000
  264         HL     3  DPPC  H13B   264   0.250000   1.008000
  265         HL     3  DPPC  H13C   265   0.250000   1.008000
  266       CTL5     3  DPPC   C14   266  -0.350000  12.011000
  267         HL     3  DPPC  H14A   267   0.250000   1.008000
  268         HL     3  DPPC  H14B   268   0.250000   1.008000
  269         HL     3  DPPC  H14C   269   0.250000   1.008000
  270       CTL5     3  DPPC   C15   270  -0.350000  12.011000
  271         HL     3  DPPC  H15A   271   0.250000   1.008000
  272         HL     3  DPPC  H15B   272   0.250000   1.008000
  273         HL     3  DPPC  H15C   273   0.250000   1.008000
  274       CTL2     3  DPPC   C12   274  -0.100000  12.011000
  275         HL     3  DPPC  H12A   275   0.250000   1.008000
  276         HL     3  DPPC  H12B   276   0.250000   1.008000
  277       CTL2     3  DPPC   C11   277  -0.080000  12.011000
  278       HAL2     3  DPPC  H11A   278   0.090000   1.008000
  279       HAL2     3  DPPC  H11B   279   0.090000   1.008000
  280         PL     3  DPPC     P   280   1.500000  30.974001
  281        O2L     3  DPPC   O13   281  -0.780000  15.999400
  282        O2L     3  DPPC   O14   282  -0.780000  15.999400
  283       OSLP     3  DPPC   O11   283  -0.570000  15.999400
  284       OSLP     3  DPPC   O12   284  -0.570000  15.999400
  285       CTL2     3  DPPC    C1   285  -0.080000  12.011000
  286       HAL2     3  DPPC    HA   286   0.090000   1.008000
  287       HAL2     3  DPPC    HB   287   0.090000   1.008000
  288       CTL1     3  DPPC    C2   288   0.170000  12.011000
  289       HAL1     3  DPPC    HS   289   0.090000   1.008000
  290        OSL     3  DPPC   O21   290  -0.490000  15.999400
  291         CL     3  DPPC   C21   291   0.900000  12.011000
  292        OBL     3  DPPC   O22   292  -0.630000  15.999400
  293       CTL2     3  DPPC   C22   293  -0.220000  12.011000
  294       HAL2     3  DPPC   H2R   294   0.090000   1.008000
  295       HAL2     3  DPPC   H2S   295   0.090000   1.008000
  296       CTL2     3  DPPC    C3   296   0.080000  12.011000
  297       HAL2     3  DPPC    HX   297   0.090000   1.008000
  298       HAL2     3  DPPC    HY   298   0.090000   1.008000
  299        OSL     3  DPPC   O31   299  -0.490000  15.999400
  300         CL     3  DPPC   C31   300   0.900000  12.011000
  301        OBL     3  DPPC   O32   301  -0.630000  15.999400
  302       CTL2     3  DPPC   C32   302  -0.220000  12.011000
  303       HAL2     3  DPPC   H2X   303   0.090000   1.008000
  304       HAL2     3  DPPC   H2Y   304   0.090000   1.008000
  305       CTL2     3  DPPC   C23   305  -0.180000  12.011000
  306       HAL2     3  DPPC   H3R   306   0.090000   1.008000
  307       HAL2     3  DPPC   H3S   307   0.090000   1.008000
  308       CTL2     3  DPPC   C24   308  -0.180000  12.011000
  309       HAL2     3  DPPC   H4R   309   0.090000   1.008000
  310       HAL2     3  DPPC   H4S   310   0.090000   1.008000
  311       CTL2     3  DPPC   C25   311  -0.180000  12.011000
  312       HAL2     3  DPPC   H5R   312   0.090000   1.008000
  313       HAL2     3  DPPC   H5S   313   0.090000   1.008000
  314       CTL2     3  DPPC   C26   314  -0.180000  12.011000
  315       HAL2     3  DPPC   H6R   315   0.090000   1.008000
  316       HAL2     3  DPPC   H6S   316   0.090000   1.008000
  317       CTL2     3  DPPC   C27   317  -0.180000  12.011000
  318       HAL2     3  DPPC   H7R   318   0.090000   1.008000
  319       HAL2     3  DPPC   H7S   319   0.090000   1.008000
  320       CTL2     3  DPPC   C28   320  -0.180000  12.011000
  321       HAL2     3  DPPC   H8R   321   0.090000   1.008000
  322       HAL2     3  DPPC   H8S   322   0.090000   1.008000
  323       CTL2     3  DPPC   C29   323  -0.180000  12.011000
  324       HAL2     3  DPPC   H9R   324   0.090000   1.008000
  325       HAL2     3  DPPC   H9S   325   0.090000   1.008000
  326       CTL2     3  DPPC  C210   326  -0.180000  12.011000
  327       HAL2     3  DPPC  H10R   327   0.090000   1.008000
  328       HAL2     3  DPPC  H10S   328   0.090000   1.008000
  329       CTL2     3  DPPC  C211   329  -0.180000  12.011000
  330       HAL2     3  DPPC  H11R   330   0.090000   1.008000
  331       HAL2     3  DPPC  H11S   331   0.090000   1.008000
  332       CTL2     3  DPPC  C212   332  -0.180000  12.011000
  333       HAL2     3  DPPC  H12R   333   0.090000   1.008000
  334       HAL2     3  DPPC  H12S   334   0.090000   1.008000
  335       CTL2     3  DPPC  C213   335  -0.180000  12.011000
  336       HAL2     3  DPPC  H13R   336   0.090000   1.008000
  337       HAL2     3  DPPC  H13S   337   0.090000   1.008000
  338       CTL2     3  DPPC  C214   338  -0.180000  12.011000
  339       HAL2     3  DPPC  H14R   339   0.090000   1.008000
  340       HAL2     3  DPPC  H14S   340   0.090000   1.008000
  341       CTL2     3  DPPC  C215   341  -0.180000  12.011000
  342       HAL2     3  DPPC  H15R   342   0.090000   1.008000
  343       HAL2     3  DPPC  H15S   343   0.090000   1.008000
  344       CTL3     3  DPPC  C216   344  -0.270000  12.011000
  345       HAL3     3  DPPC  H16R   345   0.090000   1.008000
  346       HAL3     3  DPPC  H16S   346   0.090000   1.008000
  347       HAL3     3  DPPC  H16T   347   0.090000   1.008000
  348       CTL2     3  DPPC   C33   348  -0.180000  12.011000
  349       HAL2     3  DPPC   H3X   349   0.090000   1.008000
  350       HAL2     3  DPPC   H3Y   350   0.090000   1.008000
  351       CTL2     3  DPPC   C34   351  -0.180000  12.011000
  352       HAL2     3  DPPC   H4X   352   0.090000   1.008000
  353       HAL2     3  DPPC   H4Y   353   0.090000   1.008000
  354       CTL2     3  DPPC   C35   354  -0.180000  12.011000
  355       HAL2     3  DPPC   H5X   355   0.090000   1.008000
  356       HAL2     3  DPPC   H5Y   356   0.090000   1.008000
  357       CTL2     3  DPPC   C36   357  -0.180000  12.011000
  358       HAL2     3  DPPC   H6X   358   0.090000   1.008000
  359       HAL2     3  DPPC   H6Y   359   0.090000   1.008000
  360       CTL2     3  DPPC   C37   360  -0.180000  12.011000
  361       HAL2     3  DPPC   H7X   361   0.090000   1.008000
  362       HAL2     3  DPPC   H7Y   362   0.090000   1.008000
  363       CTL2     3  DPPC   C38   363  -0.180000  12.011000
  364       HAL2     3  DPPC   H8X   364   0.090000   1.008000
  365       HAL2     3  DPPC   H8Y   365   0.090000   1.008000
  366       CTL2     3  DPPC   C39   366  -0.180000  12.011000
  367       HAL2     3  DPPC   H9X   367   0.090000   1.008000
  368       HAL2     3  DPPC   H9Y   368   0.090000   1.008000
  369       CTL2     3  DPPC  C310   369  -0.180000  12.011000
  370       HAL2     3  DPPC  H10X   370   0.090000   1.008000
  371       HAL2     3  DPPC  H10Y   371   0.090000   1.008000
  372       CTL2     3  DPPC  C311   372  -0.180000  12.011000
  373       HAL2     3  DPPC  H11X   373   0.090000   1.008000
  374       HAL2     3  DPPC  H11Y   374   0.090000   1.008000
  375       CTL2     3  DPPC  C312   375  -0.180000  12.011000
  376       HAL2     3  DPPC  H12X   376   0.090000   1.008000
  377       HAL2     3  DPPC  H12Y   377   0.090000   1.008000
  378       CTL2     3  DPPC  C313   378  -0.180000  12.011000
  379       HAL2     3  DPPC  H13X   379   0.090000   1.008000
  380       HAL2     3  DPPC  H13Y   380   0.090000   1.008000
  381       CTL2     3  DPPC  C314   381  -0.180000  12.011000
  382       HAL2     3  DPPC  H14X   382   0.090000   1.008000
  383       HAL2     3  DPPC  H14Y   383   0.090000   1.008000
  384       CTL2     3  DPPC  C315   384  -0.180000  12.011000
  385       HAL2     3  DPPC  H15X   385   0.090000   1.008000
  386       HAL2     3  DPPC  H15Y   386   0.090000   1.008000
  387       CTL3     3  DPPC  C316   387  -0.270000  12.011000
  388       HAL3     3  DPPC  H16X   388   0.090000   1.008000
  389       HAL3     3  DPPC  H16Y   389   0.090000   1.008000
  390       HAL3     3  DPPC  H16Z   390   0.090000   1.008000
  391        NTL     4  DPPC     N   391  -0.600000  14.007000
  392       CTL5     4  DPPC   C13   392  -0.350000  12.011000
  393         HL     4  DPPC  H13A   393   0.250000   1.008000
  394         HL     4  DPPC  H13B   394   0.250000   1.008000
  395         HL     4  DPPC  H13C   395   0.250000   1.008000
  396       CTL5     4  DPPC   C14   396  -0.350000  12.011000
  397         HL     4  DPPC  H14A   397   0.250000   1.008000
  398         HL     4  DPPC  H14B   398   0.250000   1.008000
  399         HL     4  DPPC  H14C   399   0.250000   1.008000
  400       CTL5     4  DPPC   C15   400  -0.350000  12.011000
  401         HL     4  DPPC  H15A   401   0.250000   1.008000
  402         HL     4  DPPC  H15B   402   0.250000   1.008000
  403         HL     4  DPPC  H15C   403   0.250000   1.008000
  404       CTL2     4  DPPC   C12   404  -0.100000  12.011000
  405         HL     4  DPPC  H12A   405   0.250000   1.008000
  406         HL     4  DPPC  H12B   406   0.250000   1.008000
  407       CTL2     4  DPPC   C11   407  -0.080000  12.011000
  408       HAL2     4  DPPC  H11A   408   0.090000   1.008000
  409       HAL2     4  DPPC  H11B   409   0.090000   1.008000
  410         PL     4  DPPC     P   410   1.500000  30.974001
  411        O2L     4  DPPC   O13   411  -0.780000  15.999400
  412        O2L     4  DPPC   O14   412  -0.780000  15.999400
  413       OSLP     4  DPPC   O11   413  -0.570000  15.999400
  414       OSLP     4  DPPC   O12   414  -0.570000  15.999400
  415       CTL2     4  DPPC    C1   415  -0.080000  12.011000
  416       HAL2     4  DPPC    HA   416   0.090000   1.008000
  417       HAL2     4  DPPC    HB   417   0.090000   1.008000
  418       CTL1     4  DPPC    C2   418   0.170000  12.011000
  419       HAL1     4  DPPC    HS   419   0.090000   1.008000
  420        OSL     4  DPPC   O21   420  -0.490000  15.999400
  421         CL     4  DPPC   C21   421   0.900000  12.011000
  422        OBL     4  DPPC   O22   422  -0.630000  15.999400
  423       CTL2     4  DPPC   C22   423  -0.220000  12.011000
  424       HAL2     4  DPPC   H2R   424   0.090000   1.008000
  425       HAL2     4  DPPC   H2S   425   0.090000   1.008000
  426       CTL2     4  DPPC    C3   426   0.080000  12.011000
  427       HAL2     4  DPPC    HX   427   0.090000   1.008000
  428       HAL2     4  DPPC    HY   428   0.090000   1.008000
  429        OSL     4  DPPC   O31   429  -0.490000  15.999400
  430         CL     4  DPPC   C31   430   0.900000  12.011000
  431        OBL     4  DPPC   O32   431  -0.630000  15.999400
  432       CTL2     4  DPPC   C32   432  -0.220000  12.011000
  433       HAL2     4  DPPC   H2X   433   0.090000   1.008000
  434       HAL2     4  DPPC   H2Y   434   0.090000   1.008000
  435       CTL2     4  DPPC   C23   435  -0.180000  12.011000
  436       HAL2     4  DPPC   H3R   436   0.090000   1.008000
  437       HAL2     4  DPPC   H3S   437   0.090000   1.008000
  438       CTL2     4  DPPC   C24   438  -0.180000  12.011000
  439       HAL2     4  DPPC   H4R   439   0.090000   1.008000
  440       HAL2     4  DPPC   H4S   440   0.090000   1.008000
  441       CTL2     4  DPPC   C25   441  -0.180000  12.011000
  442       HAL2     4  DPPC   H5R   442   0.090000   1.008000
  443       HAL2     4  DPPC   H5S   443   0.090000   1.008000
  444       CTL2     4  DPPC   C26   444  -0.180000  12.011000
  445       HAL2     4  DPPC   H6R   445   0.090000   1.008000
  446       HAL2     4  DPPC   H6S   446   0.090000   1.008000
  447       CTL2     4  DPPC   C27   447  -0.180000  12.011000
  448       HAL2     4  DPPC   H7R   448   0.090000   1.008000
  449       HAL2     4  DPPC   H7S   449   0.090000   1.008000
  450       CTL2     4  DPPC   C28   450  -0.180000  12.011000
  451       HAL2     4  DPPC   H8R   451   0.090000   1.008000
  452       HAL2     4  DPPC   H8S   452   0.090000   1.008000
  453       CTL2     4  DPPC   C29   453  -0.180000  12.011000
  454       HAL2     4  DPPC   H9R   454   0.090000   1.008000
  455       HAL2     4  DPPC   H9S   455   0.090000   1.008000
  456       CTL2     4  DPPC  C210   456  -0.180000  12.011000
  457       HAL2     4  DPPC  H10R   457   0.090000   1.008000
  458       HAL2     4  DPPC  H10S   458   0.090000   1.008000
  459       CTL2     4  DPPC  C211   459  -0.180000  12.011000
  460       HAL2     4  DPPC  H11R   460   0.090000   1.008000
  461       HAL2     4  DPPC  H11S   461   0.090000   1.008000
  462       CTL2     4  DPPC  C212   462  -0.180000  12.011000
  463       HAL2     4  DPPC  H12R   463   0.090000   1.008000
  464       HAL2     4  DPPC  H12S   464   0.090000   1.008000
  465       CTL2     4  DPPC  C213   465  -0.180000  12.011000
  466       HAL2     4  DPPC  H13R   466   0.090000   1.008000
  467       HAL2     4  DPPC  H13S   467   0.090000   1.008000
  468       CTL2     4  DPPC  C214   468  -0.180000  12.011000
  469       HAL2     4  DPPC  H14R   469   0.090000   1.008000
  470       HAL2     4  DPPC  H14S   470   0.090000   1.008000
  471       CTL2     4  DPPC  C215   471  -0.180000  12.011000
  472       HAL2     4  DPPC  H15R   472   0.090000   1.008000
  473       HAL2     4  DPPC  H15S   473   0.090000   1.008000
  474       CTL3     4  DPPC  C216   474  -0.270000  12.011000
  475       HAL3     4  DPPC  H16R   475   0.090000   1.008000
  476       HAL3     4  DPPC  H16S   476   0.090000   1.008000
  477       HAL3     4  DPPC  H16T   477   0.090000   1.008000
  478       CTL2     4  DPPC   C33   478  -0.180000  12.011000
  479       HAL2     4  DPPC   H3X   479   0.090000   1.008000
  480       HAL2     4  DPPC   H3Y   480   0.090000   1.008000
  481       CTL2     4  DPPC   C34   481  -0.180000  12.011000
  482       HAL2     4  DPPC   H4X   482   0.090000   1.008000
  483       HAL2     4  DPPC   H4Y   483   0.090000   1.008000
  484       CTL2     4  DPPC   C35   484  -0.180000  12.011000
  485       HAL2     4  DPPC   H5X   485   0.090000   1.008000
  486       HAL2     4  DPPC   H5Y   486   0.090000   1.008000
  487       CTL2     4  DPPC   C36   487  -0.180000  12.011000
  488       HAL2     4  DPPC   H6X   488   0.090000   1.008000
  489       HAL2     4  DPPC   H6Y   489   0.090000   1.008000
  490       CTL2     4  DPPC   C37   490  -0.180000  12.011000
  491       HAL2     4  DPPC   H7X   491   0.090000   1.008000
  492       HAL2     4  DPPC   H7Y   492   0.090000   1.008000
  493       CTL2     4  DPPC   C38   493  -0.180000  12.011000
  494       HAL2     4  DPPC   H8X   494   0.090000   1.008000
  495       HAL2     4  DPPC   H8Y   495   0.090000   1.008000
  496       CTL2     4  DPPC   C39   496  -0.180000  12.011000
  497       HAL2     4  DPPC   H9X   497   0.090000   1.008000
  498       HAL2     4  DPPC   H9Y   498   0.090000   1.008000
  499       CTL2     4  DPPC  C310   499  -0.180000  12.011000
  500       HAL2     4  DPPC  H10X   500   0.090000   1.008000
  501       HAL2     4  DPPC  H10Y   501   0.090000   1.008000
  502       CTL2     4  DPPC  C311   502  -0.180000  12.011000
  503       HAL2     4  DPPC  H11X   503   0.090000   1.008000
  504       HAL2     4  DPPC  H11Y   504   0.090000   1.008000
  505       CTL2     4  DPPC  C312   505  -0.180000  12.011000
  506       HAL2     4  DPPC  H12X   506   0.090000   1.008000
  507       HAL2     4  DPPC  H12Y   507   0.090000   1.008000
  508       CTL2     4  DPPC  C313   508  -0.180000  12.011000
  509       HAL2     4  DPPC  H13X   509   0.090000   1.008000
  510       HAL2     4  DPPC  H13Y   510   0.090000   1.008000
  511       CTL2     4  DPPC  C314   511  -0.180000  12.011000
  512       HAL2     4  DPPC  H14X   512   0.090000   1.008000
  513       HAL2     4  DPPC  H14Y   513   0.090000   1.008000
  514       CTL2     4  DPPC  C315   514  -0.180000  12.011000
  515       HAL2     4  DPPC  H15X   515   0.090000   1.008000
  516       HAL2     4  DPPC  H15Y   516   0.090000   1.008000
  517       CTL3     4  DPPC  C316   517  -0.270000  12.011000
  518       HAL3     4  DPPC  H16X   518   0.090000   1.008000
  519       HAL3     4  DPPC  H16Y   519   0.090000   1.008000
  520       HAL3     4  DPPC  H16Z   520   0.090000   1.008000
  521        NTL     5  DPPC     N   521  -0.600000  14.007000
  522       CTL5     5  DPPC   C13   522  -0.350000  12.011000
  523         HL     5  DPPC  H13A   523   0.250000   1.008000
  524         HL     5  DPPC  H13B   524   0.250000   1.008000
  525         HL     5  DPPC  H13C   525   0.250000   1.008000
  526       CTL5     5  DPPC   C14   526  -0.350000  12.011000
  527         HL     5  DPPC  H14A   527   0.250000   1.008000
  528         HL     5  DPPC  H14B   528   0.250000   1.008000
  529         HL     5  DPPC  H14C   529   0.250000   1.008000
  530       CTL5     5  DPPC   C15   530  -0.350000  12.011000
  531         HL     5  DPPC  H15A   531   0.250000   1.008000
  532         HL     5  DPPC  H15B   532   0.250000   1.008000
  533         HL     5  DPPC  H15C   533   0.250000   1.008000
  534       CTL2     5  DPPC   C12   534  -0.100000  12.011000
  535         HL     5  DPPC  H12A   535   0.250000   1.008000
  536         HL     5  DPPC  H12B   536   0.250000   1.008000
  537       CTL2     5  DPPC   C11   537  -0.080000  12.011000
  538       HAL2     5  DPPC  H11A   538   0.090000   1.008000
  539       HAL2     5  DPPC  H11B   539   0.090000   1.008000
  540         PL     5  DPPC     P   540   1.500000  30.974001
  541        O2L     5  DPPC   O13   541  -0.780000  15.999400
  542        O2L     5  DPPC   O14   542  -0.780000  15.999400
  543       OSLP     5  DPPC   O11   543  -0.570000  15.999400
  544       OSLP     5  DPPC   O12   544  -0.570000  15.999400
  545       CTL2     5  DPPC    C1   545  -0.080000  12.011000
  546       HAL2     5  DPPC    HA   546   0.090000   1.008000
  547       HAL2     5  DPPC    HB   547   0.090000   1.008000
  548       CTL1     5  DPPC    C2   548   0.170000  12.011000
  549       HAL1     5  DPPC    HS   549   0.090000   1.008000
  550        OSL     5  DPPC   O21   550  -0.490000  15.999400
  551         CL     5  DPPC   C21   551   0.900000  12.011000
  552        OBL     5  DPPC   O22   552  -0.630000  15.999400
  553       CTL2     5  DPPC   C22   553  -0.220000  12.011000
  554       HAL2     5  DPPC   H2R   554   0.090000   1.008000
  555       HAL2     5  DPPC   H2S   555   0.090000   1.008000
  556       CTL2     5  DPPC    C3   556   0.080000  12.011000
  557       HAL2     5  DPPC    HX   557   0.090000   1.008000
  558       HAL2     5  DPPC    HY   558   0.090000   1.008000
  559        OSL     5  DPPC   O31   559  -0.490000  15.999400
  560         CL     5  DPPC   C31   560   0.900000  12.011000
  561        OBL     5  DPPC   O32   561  -0.630000  15.999400
  562       CTL2     5  DPPC   C32   562  -0.220000  12.011000
  563       HAL2     5  DPPC   H2X   563   0.090000   1.008000
  564       HAL2     5  DPPC   H2Y   564   0.090000   1.008000
  565       CTL2     5  DPPC   C23   565  -0.180000  12.011000
  566       HAL2     5  DPPC   H3R   566   0.090000   1.008000
  567       HAL2     5  DPPC   H3S   567   0.090000   1.008000
  568       CTL2     5  DPPC   C24   568  -0.180000  12.011000
  569       HAL2     5  DPPC   H4R   569   0.090000   1.008000
  570       HAL2     5  DPPC   H4S   570   0.090000   1.008000
  571       CTL2     5  DPPC   C25   571  -0.180000  12.011000
  572       HAL2     5  DPPC   H5R   572   0.090000   1.008000
  573       HAL2     5  DPPC   H5S   573   0.090000   1.008000
  574       CTL2     5  DPPC   C26   574  -0.180000  12.011000
  575       HAL2     5  DPPC   H6R   575   0.090000   1.008000
  576       HAL2     5  DPPC   H6S   576   0.090000   1.008000
  577       CTL2     5  DPPC   C27   577  -0.180000  12.011000
  578       HAL2     5  DPPC   H7R   578   0.090000   1.008000
  579       HAL2     5  DPPC   H7S   579   0.090000   1.008000
  580       CTL2     5  DPPC   C28   580  -0.180000  12.011000
  581       HAL2     5  DPPC   H8R   581   0.090000   1.008000
  582       HAL2     5  DPPC   H8S   582   0.090000   1.008000
  583       CTL2     5  DPPC   C29   583  -0.180000  12.011000
  584       HAL2     5  DPPC   H9R   584   0.090000   1.008000
  585       HAL2     5  DPPC   H9S   585   0.090000   1.008000
  586       CTL2     5  DPPC  C210   586  -0.180000  12.011000
  587       HAL2     5  DPPC  H10R   587   0.090000   1.008000
  588       HAL2     5  DPPC  H10S   588   0.090000   1.008000
  589       CTL2     5  DPPC  C211   589  -0.180000  12.011000
  590       HAL2     5  DPPC  H11R   590   0.090000   1.008000
  591       HAL2     5  DPPC  H11S   591   0.090000   1.008000
  592       CTL2     5  DPPC  C212   592  -0.180000  12.011000
  593       HAL2     5  DPPC  H12R   593   0.090000   1.008000
  594       HAL2     5  DPPC  H12S   594   0.090000   1.008000
  595       CTL2     5  DPPC  C213   595  -0.180000  12.011000
  596       HAL2     5  DPPC  H13R   596   0.090000   1.008000
  597       HAL2     5  DPPC  H13S   597   0.090000   1.008000
  598       CTL2     5  DPPC  C214   598  -0.180000  12.011000
  599       HAL2     5  DPPC  H14R   599   0.090000   1.008000
  600       HAL2     5  DPPC  H14S   600   0.090000   1.008000
  601       CTL2     5  DPPC  C215   601  -0.180000  12.011000
  602       HAL2     5  DPPC  H15R   602   0.090000   1.008000
  603       HAL2     5  DPPC  H15S   603   0.090000   1.008000
  604       CTL3     5  DPPC  C216   604  -0.270000  12.011000
  605       HAL3     5  DPPC  H16R   605   0.090000   1.008000
  606       HAL3     5  DPPC  H16S   606   0.090000   1.008000
  607       HAL3     5  DPPC  H16T   607   0.090000   1.008000
  608       CTL2     5  DPPC   C33   608  -0.180000  12.011000
  609       HAL2     5  DPPC   H3X   609   0.090000   1.008000
  610       HAL2     5  DPPC   H3Y   610   0.090000   1.008000
  611       CTL2     5  DPPC   C34   611  -0.180000  12.011000
  612       HAL2     5  DPPC   H4X   612   0.090000   1.008000
  613       HAL2     5  DPPC   H4Y   613   0.090000   1.008000
  614       CTL2     5  DPPC   C35   614  -0.180000  12.011000
  615       HAL2     5  DPPC   H5X   615   0.090000   1.008000
  616       HAL2     5  DPPC   H5Y   616   0.090000   1.008000
  617       CTL2     5  DPPC   C36   617  -0.180000  12.011000
  618       HAL2     5  DPPC   H6X   618   0.090000   1.008000
  619       HAL2     5  DPPC   H6Y   619   0.090000   1.008000
  620       CTL2     5  DPPC   C37   620  -0.180000  12.011000
  621       HAL2     5  DPPC   H7X   621   0.090000   1.008000
  622       HAL2     5  DPPC   H7Y   622   0.090000   1.008000
  623       CTL2     5  DPPC   C38   623  -0.180000  12.011000
  624       HAL2     5  DPPC   H8X   624   0.090000   1.008000
  625       HAL2     5  DPPC   H8Y   625   0.090000   1.008000
  626       CTL2     5  DPPC   C39   626  -0.180000  12.011000
  627       HAL2     5  DPPC   H9X   627   0.090000   1.008000
  628       HAL2     5  DPPC   H9Y   628   0.090000   1.008000
  629       CTL2     5  DPPC  C310   629  -0.180000  12.011000
  630       HAL2     5  DPPC  H10X   630   0.090000   1.008000
  631       HAL2     5  DPPC  H10Y   631   0.090000   1.008000
  632       CTL2     5  DPPC  C311   632  -0.180000  12.011000
  633       HAL2     5  DPPC  H11X   633   0.090000   1.008000
  634       HAL2     5  DPPC  H11Y   634   0.090000   1.008000
  635       CTL2     5  DPPC  C312   635  -0.180000  12.011000
  636       HAL2     5  DPPC  H12X   636   0.090000   1.008000
  637       HAL2     5  DPPC  H12Y   637   0.090000   1.008000
  638       CTL2     5  DPPC  C313   638  -0.180000  12.011000
  639       HAL2     5  DPPC  H13X   639   0.090000   1.008000
  640       HAL2     5  DPPC  H13Y   640   0.090000   1.008000
  641       CTL2     5  DPPC  C314   641  -0.180000  12.011000
  642       HAL2     5  DPPC  H14X   642   0.090000   1.008000
  643       HAL2     5  DPPC  H14Y   643   0.090000   1.008000
  644       CTL2     5  DPPC  C315   644  -0.180000  12.011000
  645       HAL2     5  DPPC  H15X   645   0.090000   1.008000
  646       HAL2     5  DPPC  H15Y   646   0.090000   1.008000
  647       CTL3     5  DPPC  C316   647  -0.270000  12.011000
  648       HAL3     5  DPPC  H16X   648   0.090000   1.008000
  649       HAL3     5  DPPC  H16Y   649   0.090000   1.008000
  650       HAL3     5  DPPC  H16Z   650   0.090000   1.008000
  651        NTL     6  DPPC     N   651  -0.600000  14.007000
  652       CTL5     6  DPPC   C13   652  -0.350000  12.011000
  653         HL     6  DPPC  H13A   653   0.250000   1.008000
  654         HL     6  DPPC  H13B   654   0.250000   1.008000
  655         HL     6  DPPC  H13C   655   0.250000   1.008000
  656       CTL5     6  DPPC   C14   656  -0.350000  12.011000
  657         HL     6  DPPC  H14A   657   0.250000   1.008000
  658         HL     6  DPPC  H14B   658   0.250000   1.008000
  659         HL     6  DPPC  H14C   659   0.250000   1.008000
  660       CTL5     6  DPPC   C15   660  -0.350000  12.011000
  661         HL     6  DPPC  H15A   661   0.250000   1.008000
  662         HL     6  DPPC  H15B   662   0.250000   1.008000
  663         HL     6  DPPC  H15C   663   0.250000   1.008000
  664       CTL2     6  DPPC   C12   664  -0.100000  12.011000
  665         HL     6  DPPC  H12A   665   0.250000   1.008000
  666         HL     6  DPPC  H12B   666   0.250000   1.008000
  667       CTL2     6  DPPC   C11   667  -0.080000  12.011000
  668       HAL2     6  DPPC  H11A   668   0.090000   1.008000
  669       HAL2     6  DPPC  H11B   669   0.090000   1.008000
  670         PL     6  DPPC     P   670   1.500000  30.974001
  671        O2L     6  DPPC   O13   671  -0.780000  15.999400
  672        O2L     6  DPPC   O14   672  -0.780000  15.999400
  673       OSLP     6  DPPC   O11   673  -0.570000  15.999400
  674       OSLP     6  DPPC   O12   674  -0.570000  15.999400
  675       CTL2     6  DPPC    C1   675  -0.080000  12.011000
  676       HAL2     6  DPPC    HA   676   0.090000   1.008000
  677       HAL2     6  DPPC    HB   677   0.090000   1.008000
  678       CTL1     6  DPPC    C2   678   0.170000  12.011000
  679       HAL1     6  DPPC    HS   679   0.090000   1.008000
  680        OSL     6  DPPC   O21   680  -0.490000  15.999400
  681         CL     6  DPPC   C21   681   0.900000  12.011000
  682        OBL     6  DPPC   O22   682  -0.630000  15.999400
  683       CTL2     6  DPPC   C22   683  -0.220000  12.011000
  684       HAL2     6  DPPC   H2R   684   0.090000   1.008000
  685       HAL2     6  DPPC   H2S   685   0.090000   1.008000
  686       CTL2     6  DPPC    C3   686   0.080000  12.011000
  687       HAL2     6  DPPC    HX   687   0.090000   1.008000
  688       HAL2     6  DPPC    HY   688   0.090000   1.008000
  689        OSL     6  DPPC   O31   689  -0.490000  15.999400
  690         CL     6  DPPC   C31   690   0.900000  12.011000
  691        OBL     6  DPPC   O32   691  -0.630000  15.999400
  692       CTL2     6  DPPC   C32   692  -0.220000  12.011000
  693       HAL2     6  DPPC   H2X   693   0.090000   1.008000
  694       HAL2     6  DPPC   H2Y   694   0.090000   1.008000
  695       CTL2     6  DPPC   C23   695  -0.180000  12.011000
  696       HAL2     6  DPPC   H3R   696   0.090000   1.008000
  697       HAL2     6  DPPC   H3S   697   0.090000   1.008000
  698       CTL2     6  DPPC   C24   698  -0.180000  12.011000
  699       HAL2     6  DPPC   H4R   699   0.090000   1.008000
  700       HAL2     6  DPPC   H4S   700   0.090000   1.008000
  701       CTL2     6  DPPC   C25   701  -0.180000  12.011000
  702       HAL2     6  DPPC   H5R   702   0.090000   1.008000
  703       HAL2     6  DPPC   H5S   703   0.090000   1.008000
  704       CTL2     6  DPPC   C26   704  -0.180000  12.011000
  705       HAL2     6  DPPC   H6R   705   0.090000   1.008000
  706       HAL2     6  DPPC   H6S   706   0.090000   1.008000
  707       CTL2     6  DPPC   C27   707  -0.180000  12.011000
  708       HAL2     6  DPPC   H7R   708   0.090000   1.008000
  709       HAL2     6  DPPC   H7S   709   0.090000   1.008000
  710       CTL2     6  DPPC   C28   710  -0.180000  12.011000
  711       HAL2     6  DPPC   H8R   711   0.090000   1.008000
  712       HAL2     6  DPPC   H8S   712   0.090000   1.008000
  713       CTL2     6  DPPC   C29   713  -0.180000  12.011000
  714       HAL2     6  DPPC   H9R   714   0.090000   1.008000
  715       HAL2     6  DPPC   H9S   715   0.090000   1.008000
  716       CTL2     6  DPPC  C210   716  -0.180000  12.011000
  717       HAL2     6  DPPC  H10R   717   0.090000   1.008000
  718       HAL2     6  DPPC  H10S   718   0.090000   1.008000
  719       CTL2     6  DPPC  C211   719  -0.180000  12.011000
  720       HAL2     6  DPPC  H11R   720   0.090000   1.008000
  721       HAL2     6  DPPC  H11S   721   0.090000   1.008000
  722       CTL2     6  DPPC  C212   722  -0.180000  12.011000
  723       HAL2     6  DPPC  H12R   723   0.090000   1.008000
  724       HAL2     6  DPPC  H12S   724   0.090000   1.008000
  725       CTL2     6  DPPC  C213   725  -0.180000  12.011000
  726       HAL2     6  DPPC  H13R   726   0.090000   1.008000
  727       HAL2     6  DPPC  H13S   727   0.090000   1.008000
  728       CTL2     6  DPPC  C214   728  -0.180000  12.011000
  729       HAL2     6  DPPC  H14R   729   0.090000   1.008000
  730       HAL2     6  DPPC  H14S   730   0.090000   1.008000
  731       CTL2     6  DPPC  C215   731  -0.180000  12.011000
  732       HAL2     6  DPPC  H15R   732   0.090000   1.008000
  733       HAL2     6  DPPC  H15S   733   0.090000   1.008000
  734       CTL3     6  DPPC  C216   734  -0.270000  12.011000
  735       HAL3     6  DPPC  H16R   735   0.090000   1.008000
  736       HAL3     6  DPPC  H16S   736   0.090000   1.008000
  737       HAL3     6  DPPC  H16T   737   0.090000   1.008000
  738       CTL2     6  DPPC   C33   738  -0.180000  12.011000
  739       HAL2     6  DPPC   H3X   739   0.090000   1.008000
  740       HAL2     6  DPPC   H3Y   740   0.090000   1.008000
  741       CTL2     6  DPPC   C34   741  -0.180000  12.011000
  742       HAL2     6  DPPC   H4X   742   0.090000   1.008000
  743       HAL2     6  DPPC   H4Y   743   0.090000   1.008000
  744       CTL2     6  DPPC   C35   744  -0.180000  12.011000
  745       HAL2     6  DPPC   H5X   745   0.090000   1.008000
  746       HAL2     6  DPPC   H5Y   746   0.090000   1.008000
  747       CTL2     6  DPPC   C36   747  -0.180000  12.011000
  748       HAL2     6  DPPC   H6X   748   0.090000   1.008000
  749       HAL2     6  DPPC   H6Y   749   0.090000   1.008000
  750       CTL2     6  DPPC   C37   750  -0.180000  12.011000
  751       HAL2     6  DPPC   H7X   751   0.090000   1.008000
  752       HAL2     6  DPPC   H7Y   752   0.090000   1.008000
  753       CTL2     6  DPPC   C38   753  -0.180000  12.011000
  754       HAL2     6  DPPC   H8X   754   0.090000   1.008000
  755       HAL2     6  DPPC   H8Y   755   0.090000   1.008000
  756       CTL2     6  DPPC   C39   756  -0.180000  12.011000
  757       HAL2     6  DPPC   H9X   757   0.090000   1.008000
  758       HAL2     6  DPPC   H9Y   758   0.090000   1.008000
  759       CTL2     6  DPPC  C310   759  -0.180000  12.011000
  760       HAL2     6  DPPC  H10X   760   0.090000   1.008000
  761       HAL2     6  DPPC  H10Y   761   0.090000   1.008000
  762       CTL2     6  DPPC  C311   762  -0.180000  12.011000
  763       HAL2     6  DPPC  H11X   763   0.090000   1.008000
  764       HAL2     6  DPPC  H11Y   764   0.090000   1.008000
  765       CTL2     6  DPPC  C312   765  -0.180000  12.011000
  766       HAL2     6  DPPC  H12X   766   0.090000   1.008000
  767       HAL2     6  DPPC  H12Y   767   0.090000   1.008000
  768       CTL2     6  DPPC  C313   768  -0.180000  12.011000
  769       HAL2     6  DPPC  H13X   769   0.090000   1.008000
  770       HAL2     6  DPPC  H13Y   770   0.090000   1.008000
  771       CTL2     6  DPPC  C314   771  -0.180000  12.011000
  772       HAL2     6  DPPC  H14X   772   0.090000   1.008000
  773       HAL2     6  DPPC  H14Y   773   0.090000   1.008000
  774       CTL2     6  DPPC  C315   774  -0.180000  12.011000
  775       HAL2     6  DPPC  H15X   775   0.090000   1.008000
  776       HAL2     6  DPPC  H15Y   776   0.090000   1.008000
  777       CTL3     6  DPPC  C316   777  -0.270000  12.011000
  778       HAL3     6  DPPC  H16X   778   0.090000   1.008000
  779       HAL3     6  DPPC  H16Y   779   0.090000   1.008000
  780       HAL3     6  DPPC  H16Z   780   0.090000   1.008000
  781        NTL     7  DPPC     N   781  -0.600000  14.007000
  782       CTL5     7  DPPC   C13   782  -0.350000  12.011000
  783         HL     7  DPPC  H13A   783   0.250000   1.008000
  784         HL     7  DPPC  H13B   784   0.250000   1.008000
  785         HL     7  DPPC  H13C   785   0.250000   1.008000
  786       CTL5     7  DPPC   C14   786  -0.350000  12.011000
  787         HL     7  DPPC  H14A   787   0.250000   1.008000
  788         HL     7  DPPC  H14B   788   0.250000   1.008000
  789         HL     7  DPPC  H14C   789   0.250000   1.008000
  790       CTL5     7  DPPC   C15   790  -0.350000  12.011000
  791         HL     7  DPPC  H15A   791   0.250000   1.008000
  792         HL     7  DPPC  H15B   792   0.250000   1.008000
  793         HL     7  DPPC  H15C   793   0.250000   1.008000
  794       CTL2     7  DPPC   C12   794  -0.100000  12.011000
  795         HL     7  DPPC  H12A   795   0.250000   1.008000
  796         HL     7  DPPC  H12B   796   0.250000   1.008000
  797       CTL2     7  DPPC   C11   797  -0.080000  12.011000
  798       HAL2     7  DPPC  H11A   798   0.090000   1.008000
  799       HAL2     7  DPPC  H11B   799   0.090000   1.008000
  800         PL     7  DPPC     P   800   1.500000  30.974001
  801        O2L     7  DPPC   O13   801  -0.780000  15.999400
  802        O2L     7  DPPC   O14   802  -0.780000  15.999400
  803       OSLP     7  DPPC   O11   803  -0.570000  15.999400
  804       OSLP     7  DPPC   O12   804  -0.570000  15.999400
  805       CTL2     7  DPPC    C1   805  -0.080000  12.011000
  806       HAL2     7  DPPC    HA   806   0.090000   1.008000
  807       HAL2     7  DPPC    HB   807   0.090000   1.008000
  808       CTL1     7  DPPC    C2   808   0.170000  12.011000
  809       HAL1     7  DPPC    HS   809   0.090000   1.008000
  810        OSL     7  DPPC   O21   810  -0.490000  15.999400
  811         CL     7  DPPC   C21   811   0.900000  12.011000
  812        OBL     7  DPPC   O22   812  -0.630000  15.999400
  813       CTL2     7  DPPC   C22   813  -0.220000  12.011000
  814       HAL2     7  DPPC   H2R   814   0.090000   1.008000
  815       HAL2     7  DPPC   H2S   815   0.090000   1.008000
  816       CTL2     7  DPPC    C3   816   0.080000  12.011000
  817       HAL2     7  DPPC    HX   817   0.090000   1.008000
  818       HAL2     7  DPPC    HY   818   0.090000   1.008000
  819        OSL     7  DPPC   O31   819  -0.490000  15.999400
  820         CL     7  DPPC   C31   820   0.900000  12.011000
  821        OBL     7  DPPC   O32   821  -0.630000  15.999400
  822       CTL2     7  DPPC   C32   822  -0.220000  12.011000
  823       HAL2     7  DPPC   H2X   823   0.090000   1.008000
  824       HAL2     7  DPPC   H2Y   824   0.090000   1.008000
  825       CTL2     7  DPPC   C23   825  -0.180000  12.011000
  826       HAL2     7  DPPC   H3R   826   0.090000   1.008000
  827       HAL2     7  DPPC   H3S   827   0.090000   1.008000
  828       CTL2     7  DPPC   C24   828  -0.180000  12.011000
  829       HAL2     7  DPPC   H4R   829   0.090000   1.008000
  830       HAL2     7  DPPC   H4S   830   0.090000   1.008000
  831       CTL2     7  DPPC   C25   831  -0.180000  12.011000
  832       HAL2     7  DPPC   H5R   832   0.090000   1.008000
  833       HAL2     7  DPPC   H5S   833   0.090000   1.008000
  834       CTL2     7  DPPC   C26   834  -0.180000  12.011000
  835       HAL2     7  DPPC   H6R   835   0.090000   1.008000
  836       HAL2     7  DPPC   H6S   836   0.090000   1.008000
  837       CTL2     7  DPPC   C27   837  -0.180000  12.011000
  838       HAL2     7  DPPC   H7R   838   0.090000   1.008000
  839       HAL2     7  DPPC   H7S   839   0.090000   1.008000
  840       CTL2     7  DPPC   C28   840  -0.180000  12.011000
  841       HAL2     7  DPPC   H8R   841   0.090000   1.008000
  842       HAL2     7  DPPC   H8S   842   0.090000   1.008000
  843       CTL2     7  DPPC   C29   843  -0.180000  12.011000
  844       HAL2     7  DPPC   H9R   844   0.090000   1.008000
  845       HAL2     7  DPPC   H9S   845   0.090000   1.008000
  846       CTL2     7  DPPC  C210   846  -0.180000  12.011000
  847       HAL2     7  DPPC  H10R   847   0.090000   1.008000
  848       HAL2     7  DPPC  H10S   848   0.090000   1.008000
  849       CTL2     7  DPPC  C211   849  -0.180000  12.011000
  850       HAL2     7  DPPC  H11R   850   0.090000   1.008000
  851       HAL2     7  DPPC  H11S   851   0.090000   1.008000
  852       CTL2     7  DPPC  C212   852  -0.180000  12.011000
  853       HAL2     7  DPPC  H12R   853   0.090000   1.008000
  854       HAL2     7  DPPC  H12S   854   0.090000   1.008000
  855       CTL2     7  DPPC  C213   855  -0.180000  12.011000
  856       HAL2     7  DPPC  H13R   856   0.090000   1.008000
  857       HAL2     7  DPPC  H13S   857   0.090000   1.008000
  858       CTL2     7  DPPC  C214   858  -0.180000  12.011000
  859       HAL2     7  DPPC  H14R   859   0.090000   1.008000
  860       HAL2     7  DPPC  H14S   860   0.090000   1.008000
  861       CTL2     7  DPPC  C215   861  -0.180000  12.011000
  862       HAL2     7  DPPC  H15R   862   0.090000   1.008000
  863       HAL2     7  DPPC  H15S   863   0.090000   1.008000
  864       CTL3     7  DPPC  C216   864  -0.270000  12.011000
  865       HAL3     7  DPPC  H16R   865   0.090000   1.008000
  866       HAL3     7  DPPC  H16S   866   0.090000   1.008000
  867       HAL3     7  DPPC  H16T   867   0.090000   1.008000
  868       CTL2     7  DPPC   C33   868  -0.180000  12.011000
  869       HAL2     7  DPPC   H3X   869   0.090000   1.008000
  870       HAL2     7  DPPC   H3Y   870   0.090000   1.008000
  871       CTL2     7  DPPC   C34   871  -0.180000  12.011000
  872       HAL2     7  DPPC   H4X   872   0.090000   1.008000
  873       HAL2     7  DPPC   H4Y   873   0.090000   1.008000
  874       CTL2     7  DPPC   C35   874  -0.180000  12.011000
  875       HAL2     7  DPPC   H5X   875   0.090000   1.008000
  876       HAL2     7  DPPC   H5Y   876   0.090000   1.008000
  877       CTL2     7  DPPC   C36   877  -0.180000  12.011000
  878       HAL2     7  DPPC   H6X   878   0.090000   1.008000
  879       HAL2     7  DPPC   H6Y   879   0.090000   1.008000
  880       CTL2     7  DPPC   C37   880  -0.180000  12.011000
  881       HAL2     7  DPPC   H7X   881   0.090000   1.008000
  882       HAL2     7  DPPC   H7Y   882   0.090000   1.008000
  883       CTL2     7  DPPC   C38   883  -0.180000  12.011000
  884       HAL2     7  DPPC   H8X   884   0.090000   1.008000
  885       HAL2     7  DPPC   H8Y   885   0.090000   1.008000
  886       CTL2     7  DPPC   C39   886  -0.180000  12.011000
  887       HAL2     7  DPPC   H9X   887   0.090000   1.008000
  888       HAL2     7  DPPC   H9Y   888   0.090000   1.008000
  889       CTL2     7  DPPC  C310   889  -0.180000  12.011000
  890       HAL2     7  DPPC  H10X   890   0.090000   1.008000
  891       HAL2     7  DPPC  H10Y   891   0.090000   1.008000
  892       CTL2     7  DPPC  C311   892  -0.180000  12.011000
  893       HAL2     7  DPPC  H11X   893   0.090000   1.008000
  894       HAL2     7  DPPC  H11Y   894   0.090000   1.008000
  895       CTL2     7  DPPC  C312   895  -0.180000  12.011000
  896       HAL2     7  DPPC  H12X   896   0.090000   1.008000
  897       HAL2     7  DPPC  H12Y   897   0.090000   1.008000
  898       CTL2     7  DPPC  C313   898  -0.180000  12.011000
  899       HAL2     7  DPPC  H13X   899   0.090000   1.008000
  900       HAL2     7  DPPC  H13Y   900   0.090000   1.008000
  901       CTL2     7  DPPC  C314   901  -0.180000  12.011000
  902       HAL2     7  DPPC  H14X   902   0.090000   1.008000
  903       HAL2     7  DPPC  H14Y   903   0.090000   1.008000
  904       CTL2     7  DPPC  C315   904  -0.180000  12.011000
  905       HAL2     7  DPPC  H15X   905   0.090000   1.008000
  906       HAL2     7  DPPC  H15Y   906   0.090000   1.008000
  907       CTL3     7  DPPC  C316   907  -0.270000  12.011000
  908       HAL3     7  DPPC  H16X   908   0.090000   1.008000
  909       HAL3     7  DPPC  H16Y   909   0.090000   1.008000
  910       HAL3     7  DPPC  H16Z   910   0.090000   1.008000
  911        NTL     8  DPPC     N   911  -0.600000  14.007000
  912       CTL5     8  DPPC   C13   912  -0.350000  12.011000
  913         HL     8  DPPC  H13A   913   0.250000   1.008000
  914         HL     8  DPPC  H13B   914   0.250000   1.008000
  915         HL     8  DPPC  H13C   915   0.250000   1.008000
  916       CTL5     8  DPPC   C14   916  -0.350000  12.011000
  917         HL     8  DPPC  H14A   917   0.250000   1.008000
  918         HL     8  DPPC  H14B   918   0.250000   1.008000
  919         HL     8  DPPC  H14C   919   0.250000   1.008000
  920       CTL5     8  DPPC   C15   920  -0.350000  12.011000
  921         HL     8  DPPC  H15A   921   0.250000   1.008000
  922         HL     8  DPPC  H15B   922   0.250000   1.008000
  923         HL     8  DPPC  H15C   923   0.250000   1.008000
  924       CTL2     8  DPPC   C12   924  -0.100000  12.011000
  925         HL     8  DPPC  H12A   925   0.250000   1.008000
  926         HL     8  DPPC  H12B   926   0.250000   1.008000
  927       CTL2     8  DPPC   C11   927  -0.080000  12.011000
  928       HAL2     8  DPPC  H11A   928   0.090000   1.008000
  929       HAL2     8  DPPC  H11B   929   0.090000   1.008000
  930         PL     8  DPPC     P   930   1.500000  30.974001
  931        O2L     8  DPPC   O13   931  -0.780000  15.999400
  932        O2L     8  DPPC   O14   932  -0.780000  15.999400
  933       OSLP     8  DPPC   O11   933  -0.570000  15.999400
  934       OSLP     8  DPPC   O12   934  -0.570000  15.999400
  935       CTL2     8  DPPC    C1   935  -0.080000  12.011000
  936       HAL2     8  DPPC    HA   936   0.090000   1.008000
  937       HAL2     8  DPPC    HB   937   0.090000   1.008000
  938       CTL1     8  DPPC    C2   938   0.170000  12.011000
  939       HAL1     8  DPPC    HS   939   0.090000   1.008000
  940        OSL     8  DPPC   O21   940  -0.490000  15.999400
  941         CL     8  DPPC   C21   941   0.900000  12.011000
  942        OBL     8  DPPC   O22   942  -0.630000  15.999400
  943       CTL2     8  DPPC   C22   943  -0.220000  12.011000
  944       HAL2     8  DPPC   H2R   944   0.090000   1.008000
  945       HAL2     8  DPPC   H2S   945   0.090000   1.008000
  946       CTL2     8  DPPC    C3   946   0.080000  12.011000
  947       HAL2     8  DPPC    HX   947   0.090000   1.008000
  948       HAL2     8  DPPC    HY   948   0.090000   1.008000
  949        OSL     8  DPPC   O31   949  -0.490000  15.999400
  950         CL     8  DPPC   C31   950   0.900000  12.011000
  951        OBL     8  DPPC   O32   951  -0.630000  15.999400
  952       CTL2     8  DPPC   C32   952  -0.220000  12.011000
  953       HAL2     8  DPPC   H2X   953   0.090000   1.008000
  954       HAL2     8  DPPC   H2Y   954   0.090000   1.008000
  955       CTL2     8  DPPC   C23   955  -0.180000  12.011000
  956       HAL2     8  DPPC   H3R   956   0.090000   1.008000
  957       HAL2     8  DPPC   H3S   957   0.090000   1.008000
  958       CTL2     8  DPPC   C24   958  -0.180000  12.011000
  959       HAL2     8  DPPC   H4R   959   0.090000   1.008000
  960       HAL2     8  DPPC   H4S   960   0.090000   1.008000
  961       CTL2     8  DPPC   C25   961  -0.180000  12.011000
  962       HAL2     8  DPPC   H5R   962   0.090000   1.008000
  963       HAL2     8  DPPC   H5S   963   0.090000   1.008000
  964       CTL2     8  DPPC   C26   964  -0.180000  12.011000
  965       HAL2     8  DPPC   H6R   965   0.090000   1.008000
  966       HAL2     8  DPPC   H6S   966   0.090000   1.008000
  967       CTL2     8  DPPC   C27   967  -0.180000  12.011000
  968       HAL2     8  DPPC   H7R   968   0.090000   1.008000
  969       HAL2     8  DPPC   H7S   969   0.090000   1.008000
  970       CTL2     8  DPPC   C28   970  -0.180000  12.011000
  971       HAL2     8  DPPC   H8R   971   0.090000   1.008000
  972       HAL2     8  DPPC   H8S   972   0.090000   1.008000
  973       CTL2     8  DPPC   C29   973  -0.180000  12.011000
  974       HAL2     8  DPPC   H9R   974   0.090000   1.008000
  975       HAL2     8  DPPC   H9S   975   0.090000   1.008000
  976       CTL2     8  DPPC  C210   976  -0.180000  12.011000
  977       HAL2     8  DPPC  H10R   977   0.090000   1.008000
  978       HAL2     8  DPPC  H10S   978   0.090000   1.008000
  979       CTL2     8  DPPC  C211   979  -0.180000  12.011000
  980       HAL2     8  DPPC  H11R   980   0.090000   1.008000
  981       HAL2     8  DPPC  H11S   981   0.090000   1.008000
  982       CTL2     8  DPPC  C212   982  -0.180000  12.011000
  983       HAL2     8  DPPC  H12R   983   0.090000   1.008000
  984       HAL2     8  DPPC  H12S   984   0.090000   1.008000
  985       CTL2     8  DPPC  C213   985  -0.180000  12.011000
  986       HAL2     8  DPPC  H13R   986   0.090000   1.008000
  987       HAL2     8  DPPC  H13S   987   0.090000   1.008000
  988       CTL2     8  DPPC  C214   988  -0.180000  12.011000
  989       HAL2     8  DPPC  H14R   989   0.090000   1.008000
  990       HAL2     8  DPPC  H14S   990   0.090000   1.008000
  991       CTL2     8  DPPC  C215   991  -0.180000  12.011000
  992       HAL2     8  DPPC  H15R   992   0.090000   1.008000
  993       HAL2     8  DPPC  H15S   993   0.090000   1.008000
  994       CTL3     8  DPPC  C216   994  -0.270000  12.011000
  995       HAL3     8  DPPC  H16R   995   0.090000   1.008000
  996       HAL3     8  DPPC  H16S   996   0.090000   1.008000
  997       HAL3     8  DPPC  H16T   997   0.090000   1.008000
  998       CTL2     8  DPPC   C33   998  -0.180000  12.011000
  999       HAL2     8  DPPC   H3X   999   0.090000   1.008000
 1000       HAL2     8  DPPC   H3Y  1000   0.090000   1.008000
 1001       CTL2     8  DPPC   C34  1001  -0.180000  12.011000
 1002       HAL2     8  DPPC   H4X  1002   0.090000   1.008000
 1003       HAL2     8  DPPC   H4Y  1003   0.090000   1.008000
 1004       CTL2     8  DPPC   C35  1004  -0.180000  12.011000
 1005       HAL2     8  DPPC   H5X  1005   0.090000   1.008000
 1006       HAL2     8  DPPC   H5Y  1006   0.090000   1.008000
 1007       CTL2     8  DPPC   C36  1007  -0.180000  12.011000
 1008       HAL2     8  DPPC   H6X  1008   0.090000   1.008000
 1009       HAL2     8  DPPC   H6Y  1009   0.090000   1.008000
 1010       CTL2     8  DPPC   C37  1010  -0.180000  12.011000
 1011       HAL2     8  DPPC   H7X  1011   0.090000   1.008000
 1012       HAL2     8  DPPC   H7Y  1012   0.090000   1.008000
 1013       CTL2     8  DPPC   C38  1013  -0.180000  12.011000
 1014       HAL2     8  DPPC   H8X  1014   0.090000   1.008000
 1015       HAL2     8  DPPC   H8Y  1015   0.090000   1.008000
 1016       CTL2     8  DPPC   C39  1016  -0.180000  12.011000
 1017       HAL2     8  DPPC   H9X  1017   0.090000   1.008000
 1018       HAL2     8  DPPC   H9Y  1018   0.090000   1.008000
 1019       CTL2     8  DPPC  C310  1019  -0.180000  12.011000
 1020       HAL2     8  DPPC  H10X  1020   0.090000   1.008000
 1021       HAL2     8  DPPC  H10Y  1021   0.090000   1.008000
 1022       CTL2     8  DPPC  C311  1022  -0.180000  12.011000
 1023       HAL2     8  DPPC  H11X  1023   0.090000   1.008000
 1024       HAL2     8  DPPC  H11Y  1024   0.090000   1.008000
 1025       CTL2     8  DPPC  C312  1025  -0.180000  12.011000
 1026       HAL2     8  DPPC  H12X  1026   0.090000   1.008000
 1027       HAL2     8  DPPC  H12Y  1027   0.090000   1.008000
 1028       CTL2     8  DPPC  C313  1028  -0.180000  12.011000
 1029       HAL2     8  DPPC  H13X  1029   0.090000   1.008000
 1030       HAL2     8  DPPC  H13Y  1030   0.090000   1.008000
 1031       CTL2     8  DPPC  C314  1031  -0.180000  12.011000
 1032       HAL2     8  DPPC  H14X  1032   0.090000   1.008000
 1033       HAL2     8  DPPC  H14Y  1033   0.090000   1.008000
 1034       CTL2     8  DPPC  C315  1034  -0.180000  12.011000
 1035       HAL2     8  DPPC  H15X  1035   0.090000   1.008000
 1036       HAL2     8  DPPC  H15Y  1036   0.090000   1.008000
 1037       CTL3     8  DPPC  C316  1037  -0.270000  12.011000
 1038       HAL3     8  DPPC  H16X  1038   0.090000   1.008000
 1039       HAL3     8  DPPC  H16Y  1039   0.090000   1.008000
 1040       HAL3     8  DPPC  H16Z  1040   0.090000   1.008000
 1041        NTL     9  DPPC     N  1041  -0.600000  14.007000
 1042       CTL5     9  DPPC   C13  1042  -0.350000  12.011000
 1043         HL     9  DPPC  H13A  1043   0.250000   1.008000
 1044         HL     9  DPPC  H13B  1044   0.250000   1.008000
 1045         HL     9  DPPC  H13C  1045   0.250000   1.008000
 1046       CTL5     9  DPPC   C14  1046  -0.350000  12.011000
 1047         HL     9  DPPC  H14A  1047   0.250000   1.008000
 1048         HL     9  DPPC  H14B  1048   0.250000   1.008000
 1049         HL     9  DPPC  H14C  1049   0.250000   1.008000
 1050       CTL5     9  DPPC   C15  1050  -0.350000  12.011000
 1051         HL     9  DPPC  H15A  1051   0.250000   1.008000
 1052         HL     9  DPPC  H15B  1052   0.250000   1.008000
 1053         HL     9  DPPC  H15C  1053   0.250000   1.008000
 1054       CTL2     9  DPPC   C12  1054  -0.100000  12.011000
 1055         HL     9  DPPC  H12A  1055   0.250000   1.008000
 1056         HL     9  DPPC  H12B  1056   0.250000   1.008000
 1057       CTL2     9  DPPC   C11  1057  -0.080000  12.011000
 1058       HAL2     9  DPPC  H11A  1058   0.090000   1.008000
 1059       HAL2     9  DPPC  H11B  1059   0.090000   1.008000
 1060         PL     9  DPPC     P  1060   1.500000  30.974001
 1061        O2L     9  DPPC   O13  1061  -0.780000  15.999400
 1062        O2L     9  DPPC   O14  1062  -0.780000  15.999400
 1063       OSLP     9  DPPC   O11  1063  -0.570000  15.999400
 1064       OSLP     9  DPPC   O12  1064  -0.570000  15.999400
 1065       CTL2     9  DPPC    C1  1065  -0.080000  12.011000
 1066       HAL2     9  DPPC    HA  1066   0.090000   1.008000
 1067       HAL2     9  DPPC    HB  1067   0.090000   1.008000
 1068       CTL1     9  DPPC    C2  1068   0.170000  12.011000
 1069       HAL1     9  DPPC    HS  1069   0.090000   1.008000
 1070        OSL     9  DPPC   O21  1070  -0.490000  15.999400
 1071         CL     9  DPPC   C21  1071   0.900000  12.011000
 1072        OBL     9  DPPC   O22  1072  -0.630000  15.999400
 1073       CTL2     9  DPPC   C22  1073  -0.220000  12.011000
 1074       HAL2     9  DPPC   H2R  1074   0.090000   1.008000
 1075       HAL2     9  DPPC   H2S  1075   0.090000   1.008000
 1076       CTL2     9  DPPC    C3  1076   0.080000  12.011000
 1077       HAL2     9  DPPC    HX  1077   0.090000   1.008000
 1078       HAL2     9  DPPC    HY  1078   0.090000   1.008000
 1079        OSL     9  DPPC   O31  1079  -0.490000  15.999400
 1080         CL     9  DPPC   C31  1080   0.900000  12.011000
 1081        OBL     9  DPPC   O32  1081  -0.630000  15.999400
 1082       CTL2     9  DPPC   C32  1082  -0.220000  12.011000
 1083       HAL2     9  DPPC   H2X  1083   0.090000   1.008000
 1084       HAL2     9  DPPC   H2Y  1084   0.090000   1.008000
 1085       CTL2     9  DPPC   C23  1085  -0.180000  12.011000
 1086       HAL2     9  DPPC   H3R  1086   0.090000   1.008000
 1087       HAL2     9  DPPC   H3S  1087   0.090000   1.008000
 1088       CTL2     9  DPPC   C24  1088  -0.180000  12.011000
 1089       HAL2     9  DPPC   H4R  1089   0.090000   1.008000
 1090       HAL2     9  DPPC   H4S  1090   0.090000   1.008000
 1091       CTL2     9  DPPC   C25  1091  -0.180000  12.011000
 1092       HAL2     9  DPPC   H5R  1092   0.090000   1.008000
 1093       HAL2     9  DPPC   H5S  1093   0.090000   1.008000
 1094       CTL2     9  DPPC   C26  1094  -0.180000  12.011000
 1095       HAL2     9  DPPC   H6R  1095   0.090000   1.008000
 1096       HAL2     9  DPPC   H6S  1096   0.090000   1.008000
 1097       CTL2     9  DPPC   C27  1097  -0.180000  12.011000
 1098       HAL2     9  DPPC   H7R  1098   0.090000   1.008000
 1099       HAL2     9  DPPC   H7S  1099   0.090000   1.008000
 1100       CTL2     9  DPPC   C28  1100  -0.180000  12.011000
 1101       HAL2     9  DPPC   H8R  1101   0.090000   1.008000
 1102       HAL2     9  DPPC   H8S  1102   0.090000   1.008000
 1103       CTL2     9  DPPC   C29  1103  -0.180000  12.011000
 1104       HAL2     9  DPPC   H9R  1104   0.090000   1.008000
 1105       HAL2     9  DPPC   H9S  1105   0.090000   1.008000
 1106       CTL2     9  DPPC  C210  1106  -0.180000  12.011000
 1107       HAL2     9  DPPC  H10R  1107   0.090000   1.008000
 1108       HAL2     9  DPPC  H10S  1108   0.090000   1.008000
 1109       CTL2     9  DPPC  C211  1109  -0.180000  12.011000
 1110       HAL2     9  DPPC  H11R  1110   0.090000   1.008000
 1111       HAL2     9  DPPC  H11S  1111   0.090000   1.008000
 1112       CTL2     9  DPPC  C212  1112  -0.180000  12.011000
 1113       HAL2     9  DPPC  H12R  1113   0.090000   1.008000
 1114       HAL2     9  DPPC  H12S  1114   0.090000   1.008000
 1115       CTL2     9  DPPC  C213  1115  -0.180000  12.011000
 1116       HAL2     9  DPPC  H13R  1116   0.090000   1.008000
 1117       HAL2     9  DPPC  H13S  1117   0.090000   1.008000
 1118       CTL2     9  DPPC  C214  1118  -0.180000  12.011000
 1119       HAL2     9  DPPC  H14R  1119   0.090000   1.008000
 1120       HAL2     9  DPPC  H14S  1120   0.090000   1.008000
 1121       CTL2     9  DPPC  C215  1121  -0.180000  12.011000
 1122       HAL2     9  DPPC  H15R  1122   0.090000   1.008000
 1123       HAL2     9  DPPC  H15S  1123   0.090000   1.008000
 1124       CTL3     9  DPPC  C216  1124  -0.270000  12.011000
 1125       HAL3     9  DPPC  H16R  1125   0.090000   1.008000
 1126       HAL3     9  DPPC  H16S  1126   0.090000   1.008000
 1127       HAL3     9  DPPC  H16T  1127   0.090000   1.008000
 1128       CTL2     9  DPPC   C33  1128  -0.180000  12.011000
 1129       HAL2     9  DPPC   H3X  1129   0.090000   1.008000
 1130       HAL2     9  DPPC   H3Y  1130   0.090000   1.008000
 1131       CTL2     9  DPPC   C34  1131  -0.180000  12.011000
 1132       HAL2     9  DPPC   H4X  1132   0.090000   1.008000
 1133       HAL2     9  DPPC   H4Y  1133   0.090000   1.008000
 1134       CTL2     9  DPPC   C35  1134  -0.180000  12.011000
 1135       HAL2     9  DPPC   H5X  1135   0.090000   1.008000
 1136       HAL2     9  DPPC   H5Y  1136   0.090000   1.008000
 1137       CTL2     9  DPPC   C36  1137  -0.180000  12.011000
 1138       HAL2     9  DPPC   H6X  1138   0.090000   1.008000
 1139       HAL2     9  DPPC   H6Y  1139   0.090000   1.008000
 1140       CTL2     9  DPPC   C37  1140  -0.180000  12.011000
 1141       HAL2     9  DPPC   H7X  1141   0.090000   1.008000
 1142       HAL2     9  DPPC   H7Y  1142   0.090000   1.008000
 1143       CTL2     9  DPPC   C38  1143  -0.180000  12.011000
 1144       HAL2     9  DPPC   H8X  1144   0.090000   1.008000
 1145       HAL2     9  DPPC   H8Y  1145   0.090000   1.008000
 1146       CTL2     9  DPPC   C39  1146  -0.180000  12.011000
 1147       HAL2     9  DPPC   H9X  1147   0.090000   1.008000
 1148       HAL2     9  DPPC   H9Y  1148   0.090000   1.008000
 1149       CTL2     9  DPPC  C310  1149  -0.180000  12.011000
 1150       HAL2     9  DPPC  H10X  1150   0.090000   1.008000
 1151       HAL2     9  DPPC  H10Y  1151   0.090000   1.008000
 1152       CTL2     9  DPPC  C311  1152  -0.180000  12.011000
 1153       HAL2     9  DPPC  H11X  1153   0.090000   1.008000
 1154       HAL2     9  DPPC  H11Y  1154   0.090000   1.008000
 1155       CTL2     9  DPPC  C312  1155  -0.180000  12.011000
 1156       HAL2     9  DPPC  H12X  1156   0.090000   1.008000
 1157       HAL2     9  DPPC  H12Y  1157   0.090000   1.008000
 1158       CTL2     9  DPPC  C313  1158  -0.180000  12.011000
 1159       HAL2     9  DPPC  H13X  1159   0.090000   1.008000
 1160       HAL2     9  DPPC  H13Y  1160   0.090000   1.008000
 1161       CTL2     9  DPPC  C314  1161  -0.180000  12.011000
 1162       HAL2     9  DPPC  H14X  1162   0.090000   1.008000
 1163       HAL2     9  DPPC  H14Y  1163   0.090000   1.008000
 1164       CTL2     9  DPPC  C315  1164  -0.180000  12.011000
 1165       HAL2     9  DPPC  H15X  1165   0.090000   1.008000
 1166       HAL2     9  DPPC  H15Y  1166   0.090000   1.008000
 1167       CTL3     9  DPPC  C316  1167  -0.270000  12.011000
 1168       HAL3     9  DPPC  H16X  1168   0.090000   1.008000
 1169       HAL3     9  DPPC  H16Y  1169   0.090000   1.008000
 1170       HAL3     9  DPPC  H16Z  1170   0.090000   1.008000
 1171        NTL    10  DPPC     N  1171  -0.600000  14.007000
 1172       CTL5    10  DPPC   C13  1172  -0.350000  12.011000
 1173         HL    10  DPPC  H13A  1173   0.250000   1.008000
 1174         HL    10  DPPC  H13B  1174   0.250000   1.008000
 1175         HL    10  DPPC  H13C  1175   0.250000   1.008000
 1176       CTL5    10  DPPC   C14  1176  -0.350000  12.011000
 1177         HL    10  DPPC  H14A  1177   0.250000   1.008000
 1178         HL    10  DPPC  H14B  1178   0.250000   1.008000
 1179         HL    10  DPPC  H14C  1179   0.250000   1.008000
 1180       CTL5    10  DPPC   C15  1180  -0.350000  12.011000
 1181         HL    10  DPPC  H15A  1181   0.250000   1.008000
 1182         HL    10  DPPC  H15B  1182   0.250000   1.008000
 1183         HL    10  DPPC  H15C  1183   0.250000   1.008000
 1184       CTL2    10  DPPC   C12  1184  -0.100000  12.011000
 1185         HL    10  DPPC  H12A  1185   0.250000   1.008000
 1186         HL    10  DPPC  H12B  1186   0.250000   1.008000
 1187       CTL2    10  DPPC   C11  1187  -0.080000  12.011000
 1188       HAL2    10  DPPC  H11A  1188   0.090000   1.008000
 1189       HAL2    10  DPPC  H11B  1189   0.090000   1.008000
 1190         PL    10  DPPC     P  1190   1.500000  30.974001
 1191        O2L    10  DPPC   O13  1191  -0.780000  15.999400
 1192        O2L    10  DPPC   O14  1192  -0.780000  15.999400
 1193       OSLP    10  DPPC   O11  1193  -0.570000  15.999400
 1194       OSLP    10  DPPC   O12  1194  -0.570000  15.999400
 1195       CTL2    10  DPPC    C1  1195  -0.080000  12.011000
 1196       HAL2    10  DPPC    HA  1196   0.090000   1.008000
 1197       HAL2    10  DPPC    HB  1197   0.090000   1.008000
 1198       CTL1    10  DPPC    C2  1198   0.170000  12.011000
 1199       HAL1    10  DPPC    HS  1199   0.090000   1.008000
 1200        OSL    10  DPPC   O21  1200  -0.490000  15.999400
 1201         CL    10  DPPC   C21  1201   0.900000  12.011000
 1202        OBL    10  DPPC   O22  1202  -0.630000  15.999400
 1203       CTL2    10  DPPC   C22  1203  -0.220000  12.011000
 1204       HAL2    10  DPPC   H2R  1204   0.090000   1.008000
 1205       HAL2    10  DPPC   H2S  1205   0.090000   1.008000
 1206       CTL2    10  DPPC    C3  1206   0.080000  12.011000
 1207       HAL2    10  DPPC    HX  1207   0.090000   1.008000
 1208       HAL2    10  DPPC    HY  1208   0.090000   1.008000
 1209        OSL    10  DPPC   O31  1209  -0.490000  15.999400
 1210         CL    10  DPPC   C31  1210   0.900000  12.011000
 1211        OBL    10  DPPC   O32  1211  -0.630000  15.999400
 1212       CTL2    10  DPPC   C32  1212  -0.220000  12.011000
 1213       HAL2    10  DPPC   H2X  1213   0.090000   1.008000
 1214       HAL2    10  DPPC   H2Y  1214   0.090000   1.008000
 1215       CTL2    10  DPPC   C23  1215  -0.180000  12.011000
 1216       HAL2    10  DPPC   H3R  1216   0.090000   1.008000
 1217       HAL2    10  DPPC   H3S  1217   0.090000   1.008000
 1218       CTL2    10  DPPC   C24  1218  -0.180000  12.011000
 1219       HAL2    10  DPPC   H4R  1219   0.090000   1.008000
 1220       HAL2    10  DPPC   H4S  1220   0.090000   1.008000
 1221       CTL2    10  DPPC   C25  1221  -0.180000  12.011000
 1222       HAL2    10  DPPC   H5R  1222   0.090000   1.008000
 1223       HAL2    10  DPPC   H5S  1223   0.090000   1.008000
 1224       CTL2    10  DPPC   C26  1224  -0.180000  12.011000
 1225       HAL2    10  DPPC   H6R  1225   0.090000   1.008000
 1226       HAL2    10  DPPC   H6S  1226   0.090000   1.008000
 1227       CTL2    10  DPPC   C27  1227  -0.180000  12.011000
 1228       HAL2    10  DPPC   H7R  1228   0.090000   1.008000
 1229       HAL2    10  DPPC   H7S  1229   0.090000   1.008000
 1230       CTL2    10  DPPC   C28  1230  -0.180000  12.011000
 1231       HAL2    10  DPPC   H8R  1231   0.090000   1.008000
 1232       HAL2    10  DPPC   H8S  1232   0.090000   1.008000
 1233       CTL2    10  DPPC   C29  1233  -0.180000  12.011000
 1234       HAL2    10  DPPC   H9R  1234   0.090000   1.008000
 1235       HAL2    10  DPPC   H9S  1235   0.090000   1.008000
 1236       CTL2    10  DPPC  C210  1236  -0.180000  12.011000
 1237       HAL2    10  DPPC  H10R  1237   0.090000   1.008000
 1238       HAL2    10  DPPC  H10S  1238   0.090000   1.008000
 1239       CTL2    10  DPPC  C211  1239  -0.180000  12.011000
 1240       HAL2    10  DPPC  H11R  1240   0.090000   1.008000
 1241       HAL2    10  DPPC  H11S  1241   0.090000   1.008000
 1242       CTL2    10  DPPC  C212  1242  -0.180000  12.011000
 1243       HAL2    10  DPPC  H12R  1243   0.090000   1.008000
 1244       HAL2    10  DPPC  H12S  1244   0.090000   1.008000
 1245       CTL2    10  DPPC  C213  1245  -0.180000  12.011000
 1246       HAL2    10  DPPC  H13R  1246   0.090000   1.008000
 1247       HAL2    10  DPPC  H13S  1247   0.090000   1.008000
 1248       CTL2    10  DPPC  C214  1248  -0.180000  12.011000
 1249       HAL2    10  DPPC  H14R  1249   0.090000   1.008000
 1250       HAL2    10  DPPC  H14S  1250   0.090000   1.008000
 1251       CTL2    10  DPPC  C215  1251  -0.180000  12.011000
 1252       HAL2    10  DPPC  H15R  1252   0.090000   1.008000
 1253       HAL2    10  DPPC  H15S  1253   0.090000   1.008000
 1254       CTL3    10  DPPC  C216  1254  -0.270000  12.011000
 1255       HAL3    10  DPPC  H16R  1255   0.090000   1.008000
 1256       HAL3    10  DPPC  H16S  1256   0.090000   1.008000
 1257       HAL3    10  DPPC  H16T  1257   0.090000   1.008000
 1258       CTL2    10  DPPC   C33  1258  -0.180000  12.011000
 1259       HAL2    10  DPPC   H3X  1259   0.090000   1.008000
 1260       HAL2    10  DPPC   H3Y  1260   0.090000   1.008000
 1261       CTL2    10  DPPC   C34  1261  -0.180000  12.011000
 1262       HAL2    10  DPPC   H4X  1262   0.090000   1.008000
 1263       HAL2    10  DPPC   H4Y  1263   0.090000   1.008000
 1264       CTL2    10  DPPC   C35  1264  -0.180000  12.011000
 1265       HAL2    10  DPPC   H5X  1265   0.090000   1.008000
 1266       HAL2    10  DPPC   H5Y  1266   0.090000   1.008000
 1267       CTL2    10  DPPC   C36  1267  -0.180000  12.011000
 1268       HAL2    10  DPPC   H6X  1268   0.090000   1.008000
 1269       HAL2    10  DPPC   H6Y  1269   0.090000   1.008000
 1270       CTL2    10  DPPC   C37  1270  -0.180000  12.011000
 1271       HAL2    10  DPPC   H7X  1271   0.090000   1.008000
 1272       HAL2    10  DPPC   H7Y  1272   0.090000   1.008000
 1273       CTL2    10  DPPC   C38  1273  -0.180000  12.011000
 1274       HAL2    10  DPPC   H8X  1274   0.090000   1.008000
 1275       HAL2    10  DPPC   H8Y  1275   0.090000   1.008000
 1276       CTL2    10  DPPC   C39  1276  -0.180000  12.011000
 1277       HAL2    10  DPPC   H9X  1277   0.090000   1.008000
 1278       HAL2    10  DPPC   H9Y  1278   0.090000   1.008000
 1279       CTL2    10  DPPC  C310  1279  -0.180000  12.011000
 1280       HAL2    10  DPPC  H10X  1280   0.090000   1.008000
 1281       HAL2    10  DPPC  H10Y  1281   0.090000   1.008000
 1282       CTL2    10  DPPC  C311  1282  -0.180000  12.011000
 1283       HAL2    10  DPPC  H11X  1283   0.090000   1.008000
 1284       HAL2    10  DPPC  H11Y  1284   0.090000   1.008000
 1285       CTL2    10  DPPC  C312  1285  -0.180000  12.011000
 1286       HAL2    10  DPPC  H12X  1286   0.090000   1.008000
 1287       HAL2    10  DPPC  H12Y  1287   0.090000   1.008000
 1288       CTL2    10  DPPC  C313  1288  -0.180000  12.011000
 1289       HAL2    10  DPPC  H13X  1289   0.090000   1.008000
 1290       HAL2    10  DPPC  H13Y  1290   0.090000   1.008000
 1291       CTL2    10  DPPC  C314  1291  -0.180000  12.011000
 1292       HAL2    10  DPPC  H14X  1292   0.090000   1.008000
 1293       HAL2    10  DPPC  H14Y  1293   0.090000   1.008000
 1294       CTL2    10  DPPC  C315  1294  -0.180000  12.011000
 1295       HAL2    10  DPPC  H15X  1295   0.090000   1.008000
 1296       HAL2    10  DPPC  H15Y  1296   0.090000   1.008000
 1297       CTL3    10  DPPC  C316  1297  -0.270000  12.011000
 1298       HAL3    10  DPPC  H16X  1298   0.090000   1.008000
 1299       HAL3    10  DPPC  H16Y  1299   0.090000   1.008000
 1300       HAL3    10  DPPC  H16Z  1300   0.090000   1.008000
 1301        NTL    11  DPPC     N  1301  -0.600000  14.007000
 1302       CTL5    11  DPPC   C13  1302  -0.350000  12.011000
 1303         HL    11  DPPC  H13A  1303   0.250000   1.008000
 1304         HL    11  DPPC  H13B  1304   0.250000   1.008000
 1305         HL    11  DPPC  H13C  1305   0.250000   1.008000
 1306       CTL5    11  DPPC   C14  1306  -0.350000  12.011000
 1307         HL    11  DPPC  H14A  1307   0.250000   1.008000
 1308         HL    11  DPPC  H14B  1308   0.250000   1.008000
 1309         HL    11  DPPC  H14C  1309   0.250000   1.008000
 1310       CTL5    11  DPPC   C15  1310  -0.350000  12.011000
 1311         HL    11  DPPC  H15A  1311   0.250000   1.008000
 1312         HL    11  DPPC  H15B  1312   0.250000   1.008000
 1313         HL    11  DPPC  H15C  1313   0.250000   1.008000
 1314       CTL2    11  DPPC   C12  1314  -0.100000  12.011000
 1315         HL    11  DPPC  H12A  1315   0.250000   1.008000
 1316         HL    11  DPPC  H12B  1316   0.250000   1.008000
 1317       CTL2    11  DPPC   C11  1317  -0.080000  12.011000
 1318       HAL2    11  DPPC  H11A  1318   0.090000   1.008000
 1319       HAL2    11  DPPC  H11B  1319   0.090000   1.008000
 1320         PL    11  DPPC     P  1320   1.500000  30.974001
 1321        O2L    11  DPPC   O13  1321  -0.780000  15.999400
 1322        O2L    11  DPPC   O14  1322  -0.780000  15.999400
 1323       OSLP    11  DPPC   O11  1323  -0.570000  15.999400
 1324       OSLP    11  DPPC   O12  1324  -0.570000  15.999400
 1325       CTL2    11  DPPC    C1  1325  -0.080000  12.011000
 1326       HAL2    11  DPPC    HA  1326   0.090000   1.008000
 1327       HAL2    11  DPPC    HB  1327   0.090000   1.008000
 1328       CTL1    11  DPPC    C2  1328   0.170000  12.011000
 1329       HAL1    11  DPPC    HS  1329   0.090000   1.008000
 1330        OSL    11  DPPC   O21  1330  -0.490000  15.999400
 1331         CL    11  DPPC   C21  1331   0.900000  12.011000
 1332        OBL    11  DPPC   O22  1332  -0.630000  15.999400
 1333       CTL2    11  DPPC   C22  1333  -0.220000  12.011000
 1334       HAL2    11  DPPC   H2R  1334   0.090000   1.008000
 1335       HAL2    11  DPPC   H2S  1335   0.090000   1.008000
 1336       CTL2    11  DPPC    C3  1336   0.080000  12.011000
 1337       HAL2    11  DPPC    HX  1337   0.090000   1.008000
 1338       HAL2    11  DPPC    HY  1338   0.090000   1.008000
 1339        OSL    11  DPPC   O31  1339  -0.490000  15.999400
 1340         CL    11  DPPC   C31  1340   0.900000  12.011000
 1341        OBL    11  DPPC   O32  1341  -0.630000  15.999400
 1342       CTL2    11  DPPC   C32  1342  -0.220000  12.011000
 1343       HAL2    11  DPPC   H2X  1343   0.090000   1.008000
 1344       HAL2    11  DPPC   H2Y  1344   0.090000   1.008000
 1345       CTL2    11  DPPC   C23  1345  -0.180000  12.011000
 1346       HAL2    11  DPPC   H3R  1346   0.090000   1.008000
 1347       HAL2    11  DPPC   H3S  1347   0.090000   1.008000
 1348       CTL2    11  DPPC   C24  1348  -0.180000  12.011000
 1349       HAL2    11  DPPC   H4R  1349   0.090000   1.008000
 1350       HAL2    11  DPPC   H4S  1350   0.090000   1.008000
 1351       CTL2    11  DPPC   C25  1351  -0.180000  12.011000
 1352       HAL2    11  DPPC   H5R  1352   0.090000   1.008000
 1353       HAL2    11  DPPC   H5S  1353   0.090000   1.008000
 1354       CTL2    11  DPPC   C26  1354  -0.180000  12.011000
 1355       HAL2    11  DPPC   H6R  1355   0.090000   1.008000
 1356       HAL2    11  DPPC   H6S  1356   0.090000   1.008000
 1357       CTL2    11  DPPC   C27  1357  -0.180000  12.011000
 1358       HAL2    11  DPPC   H7R  1358   0.090000   1.008000
 1359       HAL2    11  DPPC   H7S  1359   0.090000   1.008000
 1360       CTL2    11  DPPC   C28  1360  -0.180000  12.011000
 1361       HAL2    11  DPPC   H8R  1361   0.090000   1.008000
 1362       HAL2    11  DPPC   H8S  1362   0.090000   1.008000
 1363       CTL2    11  DPPC   C29  1363  -0.180000  12.011000
 1364       HAL2    11  DPPC   H9R  1364   0.090000   1.008000
 1365       HAL2    11  DPPC   H9S  1365   0.090000   1.008000
 1366       CTL2    11  DPPC  C210  1366  -0.180000  12.011000
 1367       HAL2    11  DPPC  H10R  1367   0.090000   1.008000
 1368       HAL2    11  DPPC  H10S  1368   0.090000   1.008000
 1369       CTL2    11  DPPC  C211  1369  -0.180000  12.011000
 1370       HAL2    11  DPPC  H11R  1370   0.090000   1.008000
 1371       HAL2    11  DPPC  H11S  1371   0.090000   1.008000
 1372       CTL2    11  DPPC  C212  1372  -0.180000  12.011000
 1373       HAL2    11  DPPC  H12R  1373   0.090000   1.008000
 1374       HAL2    11  DPPC  H12S  1374   0.090000   1.008000
 1375       CTL2    11  DPPC  C213  1375  -0.180000  12.011000
 1376       HAL2    11  DPPC  H13R  1376   0.090000   1.008000
 1377       HAL2    11  DPPC  H13S  1377   0.090000   1.008000
 1378       CTL2    11  DPPC  C214  1378  -0.180000  12.011000
 1379       HAL2    11  DPPC  H14R  1379   0.090000   1.008000
 1380       HAL2    11  DPPC  H14S  1380   0.090000   1.008000
 1381       CTL2    11  DPPC  C215  1381  -0.180000  12.011000
 1382       HAL2    11  DPPC  H15R  1382   0.090000   1.008000
 1383       HAL2    11  DPPC  H15S  1383   0.090000   1.008000
 1384       CTL3    11  DPPC  C216  1384  -0.270000  12.011000
 1385       HAL3    11  DPPC  H16R  1385   0.090000   1.008000
 1386       HAL3    11  DPPC  H16S  1386   0.090000   1.008000
 1387       HAL3    11  DPPC  H16T  1387   0.090000   1.008000
 1388       CTL2    11  DPPC   C33  1388  -0.180000  12.011000
 1389       HAL2    11  DPPC   H3X  1389   0.090000   1.008000
 1390       HAL2    11  DPPC   H3Y  1390   0.090000   1.008000
 1391       CTL2    11  DPPC   C34  1391  -0.180000  12.011000
 1392       HAL2    11  DPPC   H4X  1392   0.090000   1.008000
 1393       HAL2    11  DPPC   H4Y  1393   0.090000   1.008000
 1394       CTL2    11  DPPC   C35  1394  -0.180000  12.011000
 1395       HAL2    11  DPPC   H5X  1395   0.090000   1.008000
 1396       HAL2    11  DPPC   H5Y  1396   0.090000   1.008000
 1397       CTL2    11  DPPC   C36  1397  -0.180000  12.011000
 1398       HAL2    11  DPPC   H6X  1398   0.090000   1.008000
 1399       HAL2    11  DPPC   H6Y  1399   0.090000   1.008000
 1400       CTL2    11  DPPC   C37  1400  -0.180000  12.011000
 1401       HAL2    11  DPPC   H7X  1401   0.090000   1.008000
 1402       HAL2    11  DPPC   H7Y  1402   0.090000   1.008000
 1403       CTL2    11  DPPC   C38  1403  -0.180000  12.011000
 1404       HAL2    11  DPPC   H8X  1404   0.090000   1.008000
 1405       HAL2    11  DPPC   H8Y  1405   0.090000   1.008000
 1406       CTL2    11  DPPC   C39  1406  -0.180000  12.011000
 1407       HAL2    11  DPPC   H9X  1407   0.090000   1.008000
 1408       HAL2    11  DPPC   H9Y  1408   0.090000   1.008000
 1409       CTL2    11  DPPC  C310  1409  -0.180000  12.011000
 1410       HAL2    11  DPPC  H10X  1410   0.090000   1.008000
 1411       HAL2    11  DPPC  H10Y  1411   0.090000   1.008000
 1412       CTL2    11  DPPC  C311  1412  -0.180000  12.011000
 1413       HAL2    11  DPPC  H11X  1413   0.090000   1.008000
 1414       HAL2    11  DPPC  H11Y  1414   0.090000   1.008000
 1415       CTL2    11  DPPC  C312  1415  -0.180000  12.011000
 1416       HAL2    11  DPPC  H12X  1416   0.090000   1.008000
 1417       HAL2    11  DPPC  H12Y  1417   0.090000   1.008000
 1418       CTL2    11  DPPC  C313  1418  -0.180000  12.011000
 1419       HAL2    11  DPPC  H13X  1419   0.090000   1.008000
 1420       HAL2    11  DPPC  H13Y  1420   0.090000   1.008000
 1421       CTL2    11  DPPC  C314  1421  -0.180000  12.011000
 1422       HAL2    11  DPPC  H14X  1422   0.090000   1.008000
 1423       HAL2    11  DPPC  H14Y  1423   0.090000   1.008000
 1424       CTL2    11  DPPC  C315  1424  -0.180000  12.011000
 1425       HAL2    11  DPPC  H15X  1425   0.090000   1.008000
 1426       HAL2    11  DPPC  H15Y  1426   0.090000   1.008000
 1427       CTL3    11  DPPC  C316  1427  -0.270000  12.011000
 1428       HAL3    11  DPPC  H16X  1428   0.090000   1.008000
 1429       HAL3    11  DPPC  H16Y  1429   0.090000   1.008000
 1430       HAL3    11  DPPC  H16Z  1430   0.090000   1.008000
 1431        NTL    12  DPPC     N  1431  -0.600000  14.007000
 1432       CTL5    12  DPPC   C13  1432  -0.350000  12.011000
 1433         HL    12  DPPC  H13A  1433   0.250000   1.008000
 1434         HL    12  DPPC  H13B  1434   0.250000   1.008000
 1435         HL    12  DPPC  H13C  1435   0.250000   1.008000
 1436       CTL5    12  DPPC   C14  1436  -0.350000  12.011000
 1437         HL    12  DPPC  H14A  1437   0.250000   1.008000
 1438         HL    12  DPPC  H14B  1438   0.250000   1.008000
 1439         HL    12  DPPC  H14C  1439   0.250000   1.008000
 1440       CTL5    12  DPPC   C15  1440  -0.350000  12.011000
 1441         HL    12  DPPC  H15A  1441   0.250000   1.008000
 1442         HL    12  DPPC  H15B  1442   0.250000   1.008000
 1443         HL    12  DPPC  H15C  1443   0.250000   1.008000
 1444       CTL2    12  DPPC   C12  1444  -0.100000  12.011000
 1445         HL    12  DPPC  H12A  1445   0.250000   1.008000
 1446         HL    12  DPPC  H12B  1446   0.250000   1.008000
 1447       CTL2    12  DPPC   C11  1447  -0.080000  12.011000
 1448       HAL2    12  DPPC  H11A  1448   0.090000   1.008000
 1449       HAL2    12  DPPC  H11B  1449   0.090000   1.008000
 1450         PL    12  DPPC     P  1450   1.500000  30.974001
 1451        O2L    12  DPPC   O13  1451  -0.780000  15.999400
 1452        O2L    12  DPPC   O14  1452  -0.780000  15.999400
 1453       OSLP    12  DPPC   O11  1453  -0.570000  15.999400
 1454       OSLP    12  DPPC   O12  1454  -0.570000  15.999400
 1455       CTL2    12  DPPC    C1  1455  -0.080000  12.011000
 1456       HAL2    12  DPPC    HA  1456   0.090000   1.008000
 1457       HAL2    12  DPPC    HB  1457   0.090000   1.008000
 1458       CTL1    12  DPPC    C2  1458   0.170000  12.011000
 1459       HAL1    12  DPPC    HS  1459   0.090000   1.008000
 1460        OSL    12  DPPC   O21  1460  -0.490000  15.999400
 1461         CL    12  DPPC   C21  1461   0.900000  12.011000
 1462        OBL    12  DPPC   O22  1462  -0.630000  15.999400
 1463       CTL2    12  DPPC   C22  1463  -0.220000  12.011000
 1464       HAL2    12  DPPC   H2R  1464   0.090000   1.008000
 1465       HAL2    12  DPPC   H2S  1465   0.090000   1.008000
 1466       CTL2    12  DPPC    C3  1466   0.080000  12.011000
 1467       HAL2    12  DPPC    HX  1467   0.090000   1.008000
 1468       HAL2    12  DPPC    HY  1468   0.090000   1.008000
 1469        OSL    12  DPPC   O31  1469  -0.490000  15.999400
 1470         CL    12  DPPC   C31  1470   0.900000  12.011000
 1471        OBL    12  DPPC   O32  1471  -0.630000  15.999400
 1472       CTL2    12  DPPC   C32  1472  -0.220000  12.011000
 1473       HAL2    12  DPPC   H2X  1473   0.090000   1.008000
 1474       HAL2    12  DPPC   H2Y  1474   0.090000   1.008000
 1475       CTL2    12  DPPC   C23  1475  -0.180000  12.011000
 1476       HAL2    12  DPPC   H3R  1476   0.090000   1.008000
 1477       HAL2    12  DPPC   H3S  1477   0.090000   1.008000
 1478       CTL2    12  DPPC   C24  1478  -0.180000  12.011000
 1479       HAL2    12  DPPC   H4R  1479   0.090000   1.008000
 1480       HAL2    12  DPPC   H4S  1480   0.090000   1.008000
 1481       CTL2    12  DPPC   C25  1481  -0.180000  12.011000
 1482       HAL2    12  DPPC   H5R  1482   0.090000   1.008000
 1483       HAL2    12  DPPC   H5S  1483   0.090000   1.008000
 1484       CTL2    12  DPPC   C26  1484  -0.180000  12.011000
 1485       HAL2    12  DPPC   H6R  1485   0.090000   1.008000
 1486       HAL2    12  DPPC   H6S  1486   0.090000   1.008000
 1487       CTL2    12  DPPC   C27  1487  -0.180000  12.011000
 1488       HAL2    12  DPPC   H7R  1488   0.090000   1.008000
 1489       HAL2    12  DPPC   H7S  1489   0.090000   1.008000
 1490       CTL2    12  DPPC   C28  1490  -0.180000  12.011000
 1491       HAL2    12  DPPC   H8R  1491   0.090000   1.008000
 1492       HAL2    12  DPPC   H8S  1492   0.090000   1.008000
 1493       CTL2    12  DPPC   C29  1493  -0.180000  12.011000
 1494       HAL2    12  DPPC   H9R  1494   0.090000   1.008000
 1495       HAL2    12  DPPC   H9S  1495   0.090000   1.008000
 1496       CTL2    12  DPPC  C210  1496  -0.180000  12.011000
 1497       HAL2    12  DPPC  H10R  1497   0.090000   1.008000
 1498       HAL2    12  DPPC  H10S  1498   0.090000   1.008000
 1499       CTL2    12  DPPC  C211  1499  -0.180000  12.011000
 1500       HAL2    12  DPPC  H11R  1500   0.090000   1.008000
 1501       HAL2    12  DPPC  H11S  1501   0.090000   1.008000
 1502       CTL2    12  DPPC  C212  1502  -0.180000  12.011000
 1503       HAL2    12  DPPC  H12R  1503   0.090000   1.008000
 1504       HAL2    12  DPPC  H12S  1504   0.090000   1.008000
 1505       CTL2    12  DPPC  C213  1505  -0.180000  12.011000
 1506       HAL2    12  DPPC  H13R  1506   0.090000   1.008000
 1507       HAL2    12  DPPC  H13S  1507   0.090000   1.008000
 1508       CTL2    12  DPPC  C214  1508  -0.180000  12.011000
 1509       HAL2    12  DPPC  H14R  1509   0.090000   1.008000
 1510       HAL2    12  DPPC  H14S  1510   0.090000   1.008000
 1511       CTL2    12  DPPC  C215  1511  -0.180000  12.011000
 1512       HAL2    12  DPPC  H15R  1512   0.090000   1.008000
 1513       HAL2    12  DPPC  H15S  1513   0.090000   1.008000
 1514       CTL3    12  DPPC  C216  1514  -0.270000  12.011000
 1515       HAL3    12  DPPC  H16R  1515   0.090000   1.008000
 1516       HAL3    12  DPPC  H16S  1516   0.090000   1.008000
 1517       HAL3    12  DPPC  H16T  1517   0.090000   1.008000
 1518       CTL2    12  DPPC   C33  1518  -0.180000  12.011000
 1519       HAL2    12  DPPC   H3X  1519   0.090000   1.008000
 1520       HAL2    12  DPPC   H3Y  1520   0.090000   1.008000
 1521       CTL2    12  DPPC   C34  1521  -0.180000  12.011000
 1522       HAL2    12  DPPC   H4X  1522   0.090000   1.008000
 1523       HAL2    12  DPPC   H4Y  1523   0.090000   1.008000
 1524       CTL2    12  DPPC   C35  1524  -0.180000  12.011000
 1525       HAL2    12  DPPC   H5X  1525   0.090000   1.008000
 1526       HAL2    12  DPPC   H5Y  1526   0.090000   1.008000
 1527       CTL2    12  DPPC   C36  1527  -0.180000  12.011000
 1528       HAL2    12  DPPC   H6X  1528   0.090000   1.008000
 1529       HAL2    12  DPPC   H6Y  1529   0.090000   1.008000
 1530       CTL2    12  DPPC   C37  1530  -0.180000  12.011000
 1531       HAL2    12  DPPC   H7X  1531   0.090000   1.008000
 1532       HAL2    12  DPPC   H7Y  1532   0.090000   1.008000
 1533       CTL2    12  DPPC   C38  1533  -0.180000  12.011000
 1534       HAL2    12  DPPC   H8X  1534   0.090000   1.008000
 1535       HAL2    12  DPPC   H8Y  1535   0.090000   1.008000
 1536       CTL2    12  DPPC   C39  1536  -0.180000  12.011000
 1537       HAL2    12  DPPC   H9X  1537   0.090000   1.008000
 1538       HAL2    12  DPPC   H9Y  1538   0.090000   1.008000
 1539       CTL2    12  DPPC  C310  1539  -0.180000  12.011000
 1540       HAL2    12  DPPC  H10X  1540   0.090000   1.008000
 1541       HAL2    12  DPPC  H10Y  1541   0.090000   1.008000
 1542       CTL2    12  DPPC  C311  1542  -0.180000  12.011000
 1543       HAL2    12  DPPC  H11X  1543   0.090000   1.008000
 1544       HAL2    12  DPPC  H11Y  1544   0.090000   1.008000
 1545       CTL2    12  DPPC  C312  1545  -0.180000  12.011000
 1546       HAL2    12  DPPC  H12X  1546   0.090000   1.008000
 1547       HAL2    12  DPPC  H12Y  1547   0.090000   1.008000
 1548       CTL2    12  DPPC  C313  1548  -0.180000  12.011000
 1549       HAL2    12  DPPC  H13X  1549   0.090000   1.008000
 1550       HAL2    12  DPPC  H13Y  1550   0.090000   1.008000
 1551       CTL2    12  DPPC  C314  1551  -0.180000  12.011000
 1552       HAL2    12  DPPC  H14X  1552   0.090000   1.008000
 1553       HAL2    12  DPPC  H14Y  1553   0.090000   1.008000
 1554       CTL2    12  DPPC  C315  1554  -0.180000  12.011000
 1555       HAL2    12  DPPC  H15X  1555   0.090000   1.008000
 1556       HAL2    12  DPPC  H15Y  1556   0.090000   1.008000
 1557       CTL3    12  DPPC  C316  1557  -0.270000  12.011000
 1558       HAL3    12  DPPC  H16X  1558   0.090000   1.008000
 1559       HAL3    12  DPPC  H16Y  1559   0.090000   1.008000
 1560       HAL3    12  DPPC  H16Z  1560   0.090000   1.008000
 1561        NTL    13  DPPC     N  1561  -0.600000  14.007000
 1562       CTL5    13  DPPC   C13  1562  -0.350000  12.011000
 1563         HL    13  DPPC  H13A  1563   0.250000   1.008000
 1564         HL    13  DPPC  H13B  1564   0.250000   1.008000
 1565         HL    13  DPPC  H13C  1565   0.250000   1.008000
 1566       CTL5    13  DPPC   C14  1566  -0.350000  12.011000
 1567         HL    13  DPPC  H14A  1567   0.250000   1.008000
 1568         HL    13  DPPC  H14B  1568   0.250000   1.008000
 1569         HL    13  DPPC  H14C  1569   0.250000   1.008000
 1570       CTL5    13  DPPC   C15  1570  -0.350000  12.011000
 1571         HL    13  DPPC  H15A  1571   0.250000   1.008000
 1572         HL    13  DPPC  H15B  1572   0.250000   1.008000
 1573         HL    13  DPPC  H15C  1573   0.250000   1.008000
 1574       CTL2    13  DPPC   C12  1574  -0.100000  12.011000
 1575         HL    13  DPPC  H12A  1575   0.250000   1.008000
 1576         HL    13  DPPC  H12B  1576   0.250000   1.008000
 1577       CTL2    13  DPPC   C11  1577  -0.080000  12.011000
 1578       HAL2    13  DPPC  H11A  1578   0.090000   1.008000
 1579       HAL2    13  DPPC  H11B  1579   0.090000   1.008000
 1580         PL    13  DPPC     P  1580   1.500000  30.974001
 1581        O2L    13  DPPC   O13  1581  -0.780000  15.999400
 1582        O2L    13  DPPC   O14  1582  -0.780000  15.999400
 1583       OSLP    13  DPPC   O11  1583  -0.570000  15.999400
 1584       OSLP    13  DPPC   O12  1584  -0.570000  15.999400
 1585       CTL2    13  DPPC    C1  1585  -0.080000  12.011000
 1586       HAL2    13  DPPC    HA  1586   0.090000   1.008000
 1587       HAL2    13  DPPC    HB  1587   0.090000   1.008000
 1588       CTL1    13  DPPC    C2  1588   0.170000  12.011000
 1589       HAL1    13  DPPC    HS  1589   0.090000   1.008000
 1590        OSL    13  DPPC   O21  1590  -0.490000  15.999400
 1591         CL    13  DPPC   C21  1591   0.900000  12.011000
 1592        OBL    13  DPPC   O22  1592  -0.630000  15.999400
 1593       CTL2    13  DPPC   C22  1593  -0.220000  12.011000
 1594       HAL2    13  DPPC   H2R  1594   0.090000   1.008000
 1595       HAL2    13  DPPC   H2S  1595   0.090000   1.008000
 1596       CTL2    13  DPPC    C3  1596   0.080000  12.011000
 1597       HAL2    13  DPPC    HX  1597   0.090000   1.008000
 1598       HAL2    13  DPPC    HY  1598   0.090000   1.008000
 1599        OSL    13  DPPC   O31  1599  -0.490000  15.999400
 1600         CL    13  DPPC   C31  1600   0.900000  12.011000
 1601        OBL    13  DPPC   O32  1601  -0.630000  15.999400
 1602       CTL2    13  DPPC   C32  1602  -0.220000  12.011000
 1603       HAL2    13  DPPC   H2X  1603   0.090000   1.008000
 1604       HAL2    13  DPPC   H2Y  1604   0.090000   1.008000
 1605       CTL2    13  DPPC   C23  1605  -0.180000  12.011000
 1606       HAL2    13  DPPC   H3R  1606   0.090000   1.008000
 1607       HAL2    13  DPPC   H3S  1607   0.090000   1.008000
 1608       CTL2    13  DPPC   C24  1608  -0.180000  12.011000
 1609       HAL2    13  DPPC   H4R  1609   0.090000   1.008000
 1610       HAL2    13  DPPC   H4S  1610   0.090000   1.008000
 1611       CTL2    13  DPPC   C25  1611  -0.180000  12.011000
 1612       HAL2    13  DPPC   H5R  1612   0.090000   1.008000
 1613       HAL2    13  DPPC   H5S  1613   0.090000   1.008000
 1614       CTL2    13  DPPC   C26  1614  -0.180000  12.011000
 1615       HAL2    13  DPPC   H6R  1615   0.090000   1.008000
 1616       HAL2    13  DPPC   H6S  1616   0.090000   1.008000
 1617       CTL2    13  DPPC   C27  1617  -0.180000  12.011000
 1618       HAL2    13  DPPC   H7R  1618   0.090000   1.008000
 1619       HAL2    13  DPPC   H7S  1619   0.090000   1.008000
 1620       CTL2    13  DPPC   C28  1620  -0.180000  12.011000
 1621       HAL2    13  DPPC   H8R  1621   0.090000   1.008000
 1622       HAL2    13  DPPC   H8S  1622   0.090000   1.008000
 1623       CTL2    13  DPPC   C29  1623  -0.180000  12.011000
 1624       HAL2    13  DPPC   H9R  1624   0.090000   1.008000
 1625       HAL2    13  DPPC   H9S  1625   0.090000   1.008000
 1626       CTL2    13  DPPC  C210  1626  -0.180000  12.011000
 1627       HAL2    13  DPPC  H10R  1627   0.090000   1.008000
 1628       HAL2    13  DPPC  H10S  1628   0.090000   1.008000
 1629       CTL2    13  DPPC  C211  1629  -0.180000  12.011000
 1630       HAL2    13  DPPC  H11R  1630   0.090000   1.008000
 1631       HAL2    13  DPPC  H11S  1631   0.090000   1.008000
 1632       CTL2    13  DPPC  C212  1632  -0.180000  12.011000
 1633       HAL2    13  DPPC  H12R  1633   0.090000   1.008000
 1634       HAL2    13  DPPC  H12S  1634   0.090000   1.008000
 1635       CTL2    13  DPPC  C213  1635  -0.180000  12.011000
 1636       HAL2    13  DPPC  H13R  1636   0.090000   1.008000
 1637       HAL2    13  DPPC  H13S  1637   0.090000   1.008000
 1638       CTL2    13  DPPC  C214  1638  -0.180000  12.011000
 1639       HAL2    13  DPPC  H14R  1639   0.090000   1.008000
 1640       HAL2    13  DPPC  H14S  1640   0.090000   1.008000
 1641       CTL2    13  DPPC  C215  1641  -0.180000  12.011000
 1642       HAL2    13  DPPC  H15R  1642   0.090000   1.008000
 1643       HAL2    13  DPPC  H15S  1643   0.090000   1.008000
 1644       CTL3    13  DPPC  C216  1644  -0.270000  12.011000
 1645       HAL3    13  DPPC  H16R  1645   0.090000   1.008000
 1646       HAL3    13  DPPC  H16S  1646   0.090000   1.008000
 1647       HAL3    13  DPPC  H16T  1647   0.090000   1.008000
 1648       CTL2    13  DPPC   C33  1648  -0.180000  12.011000
 1649       HAL2    13  DPPC   H3X  1649   0.090000   1.008000
 1650       HAL2    13  DPPC   H3Y  1650   0.090000   1.008000
 1651       CTL2    13  DPPC   C34  1651  -0.180000  12.011000
 1652       HAL2    13  DPPC   H4X  1652   0.090000   1.008000
 1653       HAL2    13  DPPC   H4Y  1653   0.090000   1.008000
 1654       CTL2    13  DPPC   C35  1654  -0.180000  12.011000
 1655       HAL2    13  DPPC   H5X  1655   0.090000   1.008000
 1656       HAL2    13  DPPC   H5Y  1656   0.090000   1.008000
 1657       CTL2    13  DPPC   C36  1657  -0.180000  12.011000
 1658       HAL2    13  DPPC   H6X  1658   0.090000   1.008000
 1659       HAL2    13  DPPC   H6Y  1659   0.090000   1.008000
 1660       CTL2    13  DPPC   C37  1660  -0.180000  12.011000
 1661       HAL2    13  DPPC   H7X  1661   0.090000   1.008000
 1662       HAL2    13  DPPC   H7Y  1662   0.090000   1.008000
 1663       CTL2    13  DPPC   C38  1663  -0.180000  12.011000
 1664       HAL2    13  DPPC   H8X  1664   0.090000   1.008000
 1665       HAL2    13  DPPC   H8Y  1665   0.090000   1.008000
 1666       CTL2    13  DPPC   C39  1666  -0.180000  12.011000
 1667       HAL2    13  DPPC   H9X  1667   0.090000   1.008000
 1668       HAL2    13  DPPC   H9Y  1668   0.090000   1.008000
 1669       CTL2    13  DPPC  C310  1669  -0.180000  12.011000
 1670       HAL2    13  DPPC  H10X  1670   0.090000   1.008000
 1671       HAL2    13  DPPC  H10Y  1671   0.090000   1.008000
 1672       CTL2    13  DPPC  C311  1672  -0.180000  12.011000
 1673       HAL2    13  DPPC  H11X  1673   0.090000   1.008000
 1674       HAL2    13  DPPC  H11Y  1674   0.090000   1.008000
 1675       CTL2    13  DPPC  C312  1675  -0.180000  12.011000
 1676       HAL2    13  DPPC  H12X  1676   0.090000   1.008000
 1677       HAL2    13  DPPC  H12Y  1677   0.090000   1.008000
 1678       CTL2    13  DPPC  C313  1678  -0.180000  12.011000
 1679       HAL2    13  DPPC  H13X  1679   0.090000   1.008000
 1680       HAL2    13  DPPC  H13Y  1680   0.090000   1.008000
 1681       CTL2    13  DPPC  C314  1681  -0.180000  12.011000
 1682       HAL2    13  DPPC  H14X  1682   0.090000   1.008000
 1683       HAL2    13  DPPC  H14Y  1683   0.090000   1.008000
 1684       CTL2    13  DPPC  C315  1684  -0.180000  12.011000
 1685       HAL2    13  DPPC  H15X  1685   0.090000   1.008000
 1686       HAL2    13  DPPC  H15Y  1686   0.090000   1.008000
 1687       CTL3    13  DPPC  C316  1687  -0.270000  12.011000
 1688       HAL3    13  DPPC  H16X  1688   0.090000   1.008000
 1689       HAL3    13  DPPC  H16Y  1689   0.090000   1.008000
 1690       HAL3    13  DPPC  H16Z  1690   0.090000   1.008000
 1691        NTL    14  DPPC     N  1691  -0.600000  14.007000
 1692       CTL5    14  DPPC   C13  1692  -0.350000  12.011000
 1693         HL    14  DPPC  H13A  1693   0.250000   1.008000
 1694         HL    14  DPPC  H13B  1694   0.250000   1.008000
 1695         HL    14  DPPC  H13C  1695   0.250000   1.008000
 1696       CTL5    14  DPPC   C14  1696  -0.350000  12.011000
 1697         HL    14  DPPC  H14A  1697   0.250000   1.008000
 1698         HL    14  DPPC  H14B  1698   0.250000   1.008000
 1699         HL    14  DPPC  H14C  1699   0.250000   1.008000
 1700       CTL5    14  DPPC   C15  1700  -0.350000  12.011000
 1701         HL    14  DPPC  H15A  1701   0.250000   1.008000
 1702         HL    14  DPPC  H15B  1702   0.250000   1.008000
 1703         HL    14  DPPC  H15C  1703   0.250000   1.008000
 1704       CTL2    14  DPPC   C12  1704  -0.100000  12.011000
 1705         HL    14  DPPC  H12A  1705   0.250000   1.008000
 1706         HL    14  DPPC  H12B  1706   0.250000   1.008000
 1707       CTL2    14  DPPC   C11  1707  -0.080000  12.011000
 1708       HAL2    14  DPPC  H11A  1708   0.090000   1.008000
 1709       HAL2    14  DPPC  H11B  1709   0.090000   1.008000
 1710         PL    14  DPPC     P  1710   1.500000  30.974001
 1711        O2L    14  DPPC   O13  1711  -0.780000  15.999400
 1712        O2L    14  DPPC   O14  1712  -0.780000  15.999400
 1713       OSLP    14  DPPC   O11  1713  -0.570000  15.999400
 1714       OSLP    14  DPPC   O12  1714  -0.570000  15.999400
 1715       CTL2    14  DPPC    C1  1715  -0.080000  12.011000
 1716       HAL2    14  DPPC    HA  1716   0.090000   1.008000
 1717       HAL2    14  DPPC    HB  1717   0.090000   1.008000
 1718       CTL1    14  DPPC    C2  1718   0.170000  12.011000
 1719       HAL1    14  DPPC    HS  1719   0.090000   1.008000
 1720        OSL    14  DPPC   O21  1720  -0.490000  15.999400
 1721         CL    14  DPPC   C21  1721   0.900000  12.011000
 1722        OBL    14  DPPC   O22  1722  -0.630000  15.999400
 1723       CTL2    14  DPPC   C22  1723  -0.220000  12.011000
 1724       HAL2    14  DPPC   H2R  1724   0.090000   1.008000
 1725       HAL2    14  DPPC   H2S  1725   0.090000   1.008000
 1726       CTL2    14  DPPC    C3  1726   0.080000  12.011000
 1727       HAL2    14  DPPC    HX  1727   0.090000   1.008000
 1728       HAL2    14  DPPC    HY  1728   0.090000   1.008000
 1729        OSL    14  DPPC   O31  1729  -0.490000  15.999400
 1730         CL    14  DPPC   C31  1730   0.900000  12.011000
 1731        OBL    14  DPPC   O32  1731  -0.630000  15.999400
 1732       CTL2    14  DPPC   C32  1732  -0.220000  12.011000
 1733       HAL2    14  DPPC   H2X  1733   0.090000   1.008000
 1734       HAL2    14  DPPC   H2Y  1734   0.090000   1.008000
 1735       CTL2    14  DPPC   C23  1735  -0.180000  12.011000
 1736       HAL2    14  DPPC   H3R  1736   0.090000   1.008000
 1737       HAL2    14  DPPC   H3S  1737   0.090000   1.008000
 1738       CTL2    14  DPPC   C24  1738  -0.180000  12.011000
 1739       HAL2    14  DPPC   H4R  1739   0.090000   1.008000
 1740       HAL2    14  DPPC   H4S  1740   0.090000   1.008000
 1741       CTL2    14  DPPC   C25  1741  -0.180000  12.011000
 1742       HAL2    14  DPPC   H5R  1742   0.090000   1.008000
 1743       HAL2    14  DPPC   H5S  1743   0.090000   1.008000
 1744       CTL2    14  DPPC   C26  1744  -0.180000  12.011000
 1745       HAL2    14  DPPC   H6R  1745   0.090000   1.008000
 1746       HAL2    14  DPPC   H6S  1746   0.090000   1.008000
 1747       CTL2    14  DPPC   C27  1747  -0.180000  12.011000
 1748       HAL2    14  DPPC   H7R  1748   0.090000   1.008000
 1749       HAL2    14  DPPC   H7S  1749   0.090000   1.008000
 1750       CTL2    14  DPPC   C28  1750  -0.180000  12.011000
 1751       HAL2    14  DPPC   H8R  1751   0.090000   1.008000
 1752       HAL2    14  DPPC   H8S  1752   0.090000   1.008000
 1753       CTL2    14  DPPC   C29  1753  -0.180000  12.011000
 1754       HAL2    14  DPPC   H9R  1754   0.090000   1.008000
 1755       HAL2    14  DPPC   H9S  1755   0.090000   1.008000
 1756       CTL2    14  DPPC  C210  1756  -0.180000  12.011000
 1757       HAL2    14  DPPC  H10R  1757   0.090000   1.008000
 1758       HAL2    14  DPPC  H10S  1758   0.090000   1.008000
 1759       CTL2    14  DPPC  C211  1759  -0.180000  12.011000
 1760       HAL2    14  DPPC  H11R  1760   0.090000   1.008000
 1761       HAL2    14  DPPC  H11S  1761   0.090000   1.008000
 1762       CTL2    14  DPPC  C212  1762  -0.180000  12.011000
 1763       HAL2    14  DPPC  H12R  1763   0.090000   1.008000
 1764       HAL2    14  DPPC  H12S  1764   0.090000   1.008000
 1765       CTL2    14  DPPC  C213  1765  -0.180000  12.011000
 1766       HAL2    14  DPPC  H13R  1766   0.090000   1.008000
 1767       HAL2    14  DPPC  H13S  1767   0.090000   1.008000
 1768       CTL2    14  DPPC  C214  1768  -0.180000  12.011000
 1769       HAL2    14  DPPC  H14R  1769   0.090000   1.008000
 1770       HAL2    14  DPPC  H14S  1770   0.090000   1.008000
 1771       CTL2    14  DPPC  C215  1771  -0.180000  12.011000
 1772       HAL2    14  DPPC  H15R  1772   0.090000   1.008000
 1773       HAL2    14  DPPC  H15S  1773   0.090000   1.008000
 1774       CTL3    14  DPPC  C216  1774  -0.270000  12.011000
 1775       HAL3    14  DPPC  H16R  1775   0.090000   1.008000
 1776       HAL3    14  DPPC  H16S  1776   0.090000   1.008000
 1777       HAL3    14  DPPC  H16T  1777   0.090000   1.008000
 1778       CTL2    14  DPPC   C33  1778  -0.180000  12.011000
 1779       HAL2    14  DPPC   H3X  1779   0.090000   1.008000
 1780       HAL2    14  DPPC   H3Y  1780   0.090000   1.008000
 1781       CTL2    14  DPPC   C34  1781  -0.180000  12.011000
 1782       HAL2    14  DPPC   H4X  1782   0.090000   1.008000
 1783       HAL2    14  DPPC   H4Y  1783   0.090000   1.008000
 1784       CTL2    14  DPPC   C35  1784  -0.180000  12.011000
 1785       HAL2    14  DPPC   H5X  1785   0.090000   1.008000
 1786       HAL2    14  DPPC   H5Y  1786   0.090000   1.008000
 1787       CTL2    14  DPPC   C36  1787  -0.180000  12.011000
 1788       HAL2    14  DPPC   H6X  1788   0.090000   1.008000
 1789       HAL2    14  DPPC   H6Y  1789   0.090000   1.008000
 1790       CTL2    14  DPPC   C37  1790  -0.180000  12.011000
 1791       HAL2    14  DPPC   H7X  1791   0.090000   1.008000
 1792       HAL2    14  DPPC   H7Y  1792   0.090000   1.008000
 1793       CTL2    14  DPPC   C38  1793  -0.180000  12.011000
 1794       HAL2    14  DPPC   H8X  1794   0.090000   1.008000
 1795       HAL2    14  DPPC   H8Y  1795   0.090000   1.008000
 1796       CTL2    14  DPPC   C39  1796  -0.180000  12.011000
 1797       HAL2    14  DPPC   H9X  1797   0.090000   1.008000
 1798       HAL2    14  DPPC   H9Y  1798   0.090000   1.008000
 1799       CTL2    14  DPPC  C310  1799  -0.180000  12.011000
 1800       HAL2    14  DPPC  H10X  1800   0.090000   1.008000
 1801       HAL2    14  DPPC  H10Y  1801   0.090000   1.008000
 1802       CTL2    14  DPPC  C311  1802  -0.180000  12.011000
 1803       HAL2    14  DPPC  H11X  1803   0.090000   1.008000
 1804       HAL2    14  DPPC  H11Y  1804   0.090000   1.008000
 1805       CTL2    14  DPPC  C312  1805  -0.180000  12.011000
 1806       HAL2    14  DPPC  H12X  1806   0.090000   1.008000
 1807       HAL2    14  DPPC  H12Y  1807   0.090000   1.008000
 1808       CTL2    14  DPPC  C313  1808  -0.180000  12.011000
 1809       HAL2    14  DPPC  H13X  1809   0.090000   1.008000
 1810       HAL2    14  DPPC  H13Y  1810   0.090000   1.008000
 1811       CTL2    14  DPPC  C314  1811  -0.180000  12.011000
 1812       HAL2    14  DPPC  H14X  1812   0.090000   1.008000
 1813       HAL2    14  DPPC  H14Y  1813   0.090000   1.008000
 1814       CTL2    14  DPPC  C315  1814  -0.180000  12.011000
 1815       HAL2    14  DPPC  H15X  1815   0.090000   1.008000
 1816       HAL2    14  DPPC  H15Y  1816   0.090000   1.008000
 1817       CTL3    14  DPPC  C316  1817  -0.270000  12.011000
 1818       HAL3    14  DPPC  H16X  1818   0.090000   1.008000
 1819       HAL3    14  DPPC  H16Y  1819   0.090000   1.008000
 1820       HAL3    14  DPPC  H16Z  1820   0.090000   1.008000
 1821        NTL    15  DPPC     N  1821  -0.600000  14.007000
 1822       CTL5    15  DPPC   C13  1822  -0.350000  12.011000
 1823         HL    15  DPPC  H13A  1823   0.250000   1.008000
 1824         HL    15  DPPC  H13B  1824   0.250000   1.008000
 1825         HL    15  DPPC  H13C  1825   0.250000   1.008000
 1826       CTL5    15  DPPC   C14  1826  -0.350000  12.011000
 1827         HL    15  DPPC  H14A  1827   0.250000   1.008000
 1828         HL    15  DPPC  H14B  1828   0.250000   1.008000
 1829         HL    15  DPPC  H14C  1829   0.250000   1.008000
 1830       CTL5    15  DPPC   C15  1830  -0.350000  12.011000
 1831         HL    15  DPPC  H15A  1831   0.250000   1.008000
 1832         HL    15  DPPC  H15B  1832   0.250000   1.008000
 1833         HL    15  DPPC  H15C  1833   0.250000   1.008000
 1834       CTL2    15  DPPC   C12  1834  -0.100000  12.011000
 1835         HL    15  DPPC  H12A  1835   0.250000   1.008000
 1836         HL    15  DPPC  H12B  1836   0.250000   1.008000
 1837       CTL2    15  DPPC   C11  1837  -0.080000  12.011000
 1838       HAL2    15  DPPC  H11A  1838   0.090000   1.008000
 1839       HAL2    15  DPPC  H11B  1839   0.090000   1.008000
 1840         PL    15  DPPC     P  1840   1.500000  30.974001
 1841        O2L    15  DPPC   O13  1841  -0.780000  15.999400
 1842        O2L    15  DPPC   O14  1842  -0.780000  15.999400
 1843       OSLP    15  DPPC   O11  1843  -0.570000  15.999400
 1844       OSLP    15  DPPC   O12  1844  -0.570000  15.999400
 1845       CTL2    15  DPPC    C1  1845  -0.080000  12.011000
 1846       HAL2    15  DPPC    HA  1846   0.090000   1.008000
 1847       HAL2    15  DPPC    HB  1847   0.090000   1.008000
 1848       CTL1    15  DPPC    C2  1848   0.170000  12.011000
 1849       HAL1    15  DPPC    HS  1849   0.090000   1.008000
 1850        OSL    15  DPPC   O21  1850  -0.490000  15.999400
 1851         CL    15  DPPC   C21  1851   0.900000  12.011000
 1852        OBL    15  DPPC   O22  1852  -0.630000  15.999400
 1853       CTL2    15  DPPC   C22  1853  -0.220000  12.011000
 1854       HAL2    15  DPPC   H2R  1854   0.090000   1.008000
 1855       HAL2    15  DPPC   H2S  1855   0.090000   1.008000
 1856       CTL2    15  DPPC    C3  1856   0.080000  12.011000
 1857       HAL2    15  DPPC    HX  1857   0.090000   1.008000
 1858       HAL2    15  DPPC    HY  1858   0.090000   1.008000
 1859        OSL    15  DPPC   O31  1859  -0.490000  15.999400
 1860         CL    15  DPPC   C31  1860   0.900000  12.011000
 1861        OBL    15  DPPC   O32  1861  -0.630000  15.999400
 1862       CTL2    15  DPPC   C32  1862  -0.220000  12.011000
 1863       HAL2    15  DPPC   H2X  1863   0.090000   1.008000
 1864       HAL2    15  DPPC   H2Y  1864   0.090000   1.008000
 1865       CTL2    15  DPPC   C23  1865  -0.180000  12.011000
 1866       HAL2    15  DPPC   H3R  1866   0.090000   1.008000
 1867       HAL2    15  DPPC   H3S  1867   0.090000   1.008000
 1868       CTL2    15  DPPC   C24  1868  -0.180000  12.011000
 1869       HAL2    15  DPPC   H4R  1869   0.090000   1.008000
 1870       HAL2    15  DPPC   H4S  1870   0.090000   1.008000
 1871       CTL2    15  DPPC   C25  1871  -0.180000  12.011000
 1872       HAL2    15  DPPC   H5R  1872   0.090000   1.008000
 1873       HAL2    15  DPPC   H5S  1873   0.090000   1.008000
 1874       CTL2    15  DPPC   C26  1874  -0.180000  12.011000
 1875       HAL2    15  DPPC   H6R  1875   0.090000   1.008000
 1876       HAL2    15  DPPC   H6S  1876   0.090000   1.008000
 1877       CTL2    15  DPPC   C27  1877  -0.180000  12.011000
 1878       HAL2    15  DPPC   H7R  1878   0.090000   1.008000
 1879       HAL2    15  DPPC   H7S  1879   0.090000   1.008000
 1880       CTL2    15  DPPC   C28  1880  -0.180000  12.011000
 1881       HAL2    15  DPPC   H8R  1881   0.090000   1.008000
 1882       HAL2    15  DPPC   H8S  1882   0.090000   1.008000
 1883       CTL2    15  DPPC   C29  1883  -0.180000  12.011000
 1884       HAL2    15  DPPC   H9R  1884   0.090000   1.008000
 1885       HAL2    15  DPPC   H9S  1885   0.090000   1.008000
 1886       CTL2    15  DPPC  C210  1886  -0.180000  12.011000
 1887       HAL2    15  DPPC  H10R  1887   0.090000   1.008000
 1888       HAL2    15  DPPC  H10S  1888   0.090000   1.008000
 1889       CTL2    15  DPPC  C211  1889  -0.180000  12.011000
 1890       HAL2    15  DPPC  H11R  1890   0.090000   1.008000
 1891       HAL2    15  DPPC  H11S  1891   0.090000   1.008000
 1892       CTL2    15  DPPC  C212  1892  -0.180000  12.011000
 1893       HAL2    15  DPPC  H12R  1893   0.090000   1.008000
 1894       HAL2    15  DPPC  H12S  1894   0.090000   1.008000
 1895       CTL2    15  DPPC  C213  1895  -0.180000  12.011000
 1896       HAL2    15  DPPC  H13R  1896   0.090000   1.008000
 1897       HAL2    15  DPPC  H13S  1897   0.090000   1.008000
 1898       CTL2    15  DPPC  C214  1898  -0.180000  12.011000
 1899       HAL2    15  DPPC  H14R  1899   0.090000   1.008000
 1900       HAL2    15  DPPC  H14S  1900   0.090000   1.008000
 1901       CTL2    15  DPPC  C215  1901  -0.180000  12.011000
 1902       HAL2    15  DPPC  H15R  1902   0.090000   1.008000
 1903       HAL2    15  DPPC  H15S  1903   0.090000   1.008000
 1904       CTL3    15  DPPC  C216  1904  -0.270000  12.011000
 1905       HAL3    15  DPPC  H16R  1905   0.090000   1.008000
 1906       HAL3    15  DPPC  H16S  1906   0.090000   1.008000
 1907       HAL3    15  DPPC  H16T  1907   0.090000   1.008000
 1908       CTL2    15  DPPC   C33  1908  -0.180000  12.011000
 1909       HAL2    15  DPPC   H3X  1909   0.090000   1.008000
 1910       HAL2    15  DPPC   H3Y  1910   0.090000   1.008000
 1911       CTL2    15  DPPC   C34  1911  -0.180000  12.011000
 1912       HAL2    15  DPPC   H4X  1912   0.090000   1.008000
 1913       HAL2    15  DPPC   H4Y  1913   0.090000   1.008000
 1914       CTL2    15  DPPC   C35  1914  -0.180000  12.011000
 1915       HAL2    15  DPPC   H5X  1915   0.090000   1.008000
 1916       HAL2    15  DPPC   H5Y  1916   0.090000   1.008000
 1917       CTL2    15  DPPC   C36  1917  -0.180000  12.011000
 1918       HAL2    15  DPPC   H6X  1918   0.090000   1.008000
 1919       HAL2    15  DPPC   H6Y  1919   0.090000   1.008000
 1920       CTL2    15  DPPC   C37  1920  -0.180000  12.011000
 1921       HAL2    15  DPPC   H7X  1921   0.090000   1.008000
 1922       HAL2    15  DPPC   H7Y  1922   0.090000   1.008000
 1923       CTL2    15  DPPC   C38  1923  -0.180000  12.011000
 1924       HAL2    15  DPPC   H8X  1924   0.090000   1.008000
 1925       HAL2    15  DPPC   H8Y  1925   0.090000   1.008000
 1926       CTL2    15  DPPC   C39  1926  -0.180000  12.011000
 1927       HAL2    15  DPPC   H9X  1927   0.090000   1.008000
 1928       HAL2    15  DPPC   H9Y  1928   0.090000   1.008000
 1929       CTL2    15  DPPC  C310  1929  -0.180000  12.011000
 1930       HAL2    15  DPPC  H10X  1930   0.090000   1.008000
 1931       HAL2    15  DPPC  H10Y  1931   0.090000   1.008000
 1932       CTL2    15  DPPC  C311  1932  -0.180000  12.011000
 1933       HAL2    15  DPPC  H11X  1933   0.090000   1.008000
 1934       HAL2    15  DPPC  H11Y  1934   0.090000   1.008000
 1935       CTL2    15  DPPC  C312  1935  -0.180000  12.011000
 1936       HAL2    15  DPPC  H12X  1936   0.090000   1.008000
 1937       HAL2    15  DPPC  H12Y  1937   0.090000   1.008000
 1938       CTL2    15  DPPC  C313  1938  -0.180000  12.011000
 1939       HAL2    15  DPPC  H13X  1939   0.090000   1.008000
 1940       HAL2    15  DPPC  H13Y  1940   0.090000   1.008000
 1941       CTL2    15  DPPC  C314  1941  -0.180000  12.011000
 1942       HAL2    15  DPPC  H14X  1942   0.090000   1.008000
 1943       HAL2    15  DPPC  H14Y  1943   0.090000   1.008000
 1944       CTL2    15  DPPC  C315  1944  -0.180000  12.011000
 1945       HAL2    15  DPPC  H15X  1945   0.090000   1.008000
 1946       HAL2    15  DPPC  H15Y  1946   0.090000   1.008000
 1947       CTL3    15  DPPC  C316  1947  -0.270000  12.011000
 1948       HAL3    15  DPPC  H16X  1948   0.090000   1.008000
 1949       HAL3    15  DPPC  H16Y  1949   0.090000   1.008000
 1950       HAL3    15  DPPC  H16Z  1950   0.090000   1.008000
 1951        NTL    16  DPPC     N  1951  -0.600000  14.007000
 1952       CTL5    16  DPPC   C13  1952  -0.350000  12.011000
 1953         HL    16  DPPC  H13A  1953   0.250000   1.008000
 1954         HL    16  DPPC  H13B  1954   0.250000   1.008000
 1955         HL    16  DPPC  H13C  1955   0.250000   1.008000
 1956       CTL5    16  DPPC   C14  1956  -0.350000  12.011000
 1957         HL    16  DPPC  H14A  1957   0.250000   1.008000
 1958         HL    16  DPPC  H14B  1958   0.250000   1.008000
 1959         HL    16  DPPC  H14C  1959   0.250000   1.008000
 1960       CTL5    16  DPPC   C15  1960  -0.350000  12.011000
 1961         HL    16  DPPC  H15A  1961   0.250000   1.008000
 1962         HL    16  DPPC  H15B  1962   0.250000   1.008000
 1963         HL    16  DPPC  H15C  1963   0.250000   1.008000
 1964       CTL2    16  DPPC   C12  1964  -0.100000  12.011000
 1965         HL    16  DPPC  H12A  1965   0.250000   1.008000
 1966         HL    16  DPPC  H12B  1966   0.250000   1.008000
 1967       CTL2    16  DPPC   C11  1967  -0.080000  12.011000
 1968       HAL2    16  DPPC  H11A  1968   0.090000   1.008000
 1969       HAL2    16  DPPC  H11B  1969   0.090000   1.008000
 1970         PL    16  DPPC     P  1970   1.500000  30.974001
 1971        O2L    16  DPPC   O13  1971  -0.780000  15.999400
 1972        O2L    16  DPPC   O14  1972  -0.780000  15.999400
 1973       OSLP    16  DPPC   O11  1973  -0.570000  15.999400
 1974       OSLP    16  DPPC   O12  1974  -0.570000  15.999400
 1975       CTL2    16  DPPC    C1  1975  -0.080000  12.011000
 1976       HAL2    16  DPPC    HA  1976   0.090000   1.008000
 1977       HAL2    16  DPPC    HB  1977   0.090000   1.008000
 1978       CTL1    16  DPPC    C2  1978   0.170000  12.011000
 1979       HAL1    16  DPPC    HS  1979   0.090000   1.008000
 1980        OSL    16  DPPC   O21  1980  -0.490000  15.999400
 1981         CL    16  DPPC   C21  1981   0.900000  12.011000
 1982        OBL    16  DPPC   O22  1982  -0.630000  15.999400
 1983       CTL2    16  DPPC   C22  1983  -0.220000  12.011000
 1984       HAL2    16  DPPC   H2R  1984   0.090000   1.008000
 1985       HAL2    16  DPPC   H2S  1985   0.090000   1.008000
 1986       CTL2    16  DPPC    C3  1986   0.080000  12.011000
 1987       HAL2    16  DPPC    HX  1987   0.090000   1.008000
 1988       HAL2    16  DPPC    HY  1988   0.090000   1.008000
 1989        OSL    16  DPPC   O31  1989  -0.490000  15.999400
 1990         CL    16  DPPC   C31  1990   0.900000  12.011000
 1991        OBL    16  DPPC   O32  1991  -0.630000  15.999400
 1992       CTL2    16  DPPC   C32  1992  -0.220000  12.011000
 1993       HAL2    16  DPPC   H2X  1993   0.090000   1.008000
 1994       HAL2    16  DPPC   H2Y  1994   0.090000   1.008000
 1995       CTL2    16  DPPC   C23  1995  -0.180000  12.011000
 1996       HAL2    16  DPPC   H3R  1996   0.090000   1.008000
 1997       HAL2    16  DPPC   H3S  1997   0.090000   1.008000
 1998       CTL2    16  DPPC   C24  1998  -0.180000  12.011000
 1999       HAL2    16  DPPC   H4R  1999   0.090000   1.008000
 2000       HAL2    16  DPPC   H4S  2000   0.090000   1.008000
 2001       CTL2    16  DPPC   C25  2001  -0.180000  12.011000
 2002       HAL2    16  DPPC   H5R  2002   0.090000   1.008000
 2003       HAL2    16  DPPC   H5S  2003   0.090000   1.008000
 2004       CTL2    16  DPPC   C26  2004  -0.180000  12.011000
 2005       HAL2    16  DPPC   H6R  2005   0.090000   1.008000
 2006       HAL2    16  DPPC   H6S  2006   0.090000   1.008000
 2007       CTL2    16  DPPC   C27  2007  -0.180000  12.011000
 2008       HAL2    16  DPPC   H7R  2008   0.090000   1.008000
 2009       HAL2    16  DPPC   H7S  2009   0.090000   1.008000
 2010       CTL2    16  DPPC   C28  2010  -0.180000  12.011000
 2011       HAL2    16  DPPC   H8R  2011   0.090000   1.008000
 2012       HAL2    16  DPPC   H8S  2012   0.090000   1.008000
 2013       CTL2    16  DPPC   C29  2013  -0.180000  12.011000
 2014       HAL2    16  DPPC   H9R  2014   0.090000   1.008000
 2015       HAL2    16  DPPC   H9S  2015   0.090000   1.008000
 2016       CTL2    16  DPPC  C210  2016  -0.180000  12.011000
 2017       HAL2    16  DPPC  H10R  2017   0.090000   1.008000
 2018       HAL2    16  DPPC  H10S  2018   0.090000   1.008000
 2019       CTL2    16  DPPC  C211  2019  -0.180000  12.011000
 2020       HAL2    16  DPPC  H11R  2020   0.090000   1.008000
 2021       HAL2    16  DPPC  H11S  2021   0.090000   1.008000
 2022       CTL2    16  DPPC  C212  2022  -0.180000  12.011000
 2023       HAL2    16  DPPC  H12R  2023   0.090000   1.008000
 2024       HAL2    16  DPPC  H12S  2024   0.090000   1.008000
 2025       CTL2    16  DPPC  C213  2025  -0.180000  12.011000
 2026       HAL2    16  DPPC  H13R  2026   0.090000   1.008000
 2027       HAL2    16  DPPC  H13S  2027   0.090000   1.008000
 2028       CTL2    16  DPPC  C214  2028  -0.180000  12.011000
 2029       HAL2    16  DPPC  H14R  2029   0.090000   1.008000
 2030       HAL2    16  DPPC  H14S  2030   0.090000   1.008000
 2031       CTL2    16  DPPC  C215  2031  -0.180000  12.011000
 2032       HAL2    16  DPPC  H15R  2032   0.090000   1.008000
 2033       HAL2    16  DPPC  H15S  2033   0.090000   1.008000
 2034       CTL3    16  DPPC  C216  2034  -0.270000  12.011000
 2035       HAL3    16  DPPC  H16R  2035   0.090000   1.008000
 2036       HAL3    16  DPPC  H16S  2036   0.090000   1.008000
 2037       HAL3    16  DPPC  H16T  2037   0.090000   1.008000
 2038       CTL2    16  DPPC   C33  2038  -0.180000  12.011000
 2039       HAL2    16  DPPC   H3X  2039   0.090000   1.008000
 2040       HAL2    16  DPPC   H3Y  2040   0.090000   1.008000
 2041       CTL2    16  DPPC   C34  2041  -0.180000  12.011000
 2042       HAL2    16  DPPC   H4X  2042   0.090000   1.008000
 2043       HAL2    16  DPPC   H4Y  2043   0.090000   1.008000
 2044       CTL2    16  DPPC   C35  2044  -0.180000  12.011000
 2045       HAL2    16  DPPC   H5X  2045   0.090000   1.008000
 2046       HAL2    16  DPPC   H5Y  2046   0.090000   1.008000
 2047       CTL2    16  DPPC   C36  2047  -0.180000  12.011000
 2048       HAL2    16  DPPC   H6X  2048   0.090000   1.008000
 2049       HAL2    16  DPPC   H6Y  2049   0.090000   1.008000
 2050       CTL2    16  DPPC   C37  2050  -0.180000  12.011000
 2051       HAL2    16  DPPC   H7X  2051   0.090000   1.008000
 2052       HAL2    16  DPPC   H7Y  2052   0.090000   1.008000
 2053       CTL2    16  DPPC   C38  2053  -0.180000  12.011000
 2054       HAL2    16  DPPC   H8X  2054   0.090000   1.008000
 2055       HAL2    16  DPPC   H8Y  2055   0.090000   1.008000
 2056       CTL2    16  DPPC   C39  2056  -0.180000  12.011000
 2057       HAL2    16  DPPC   H9X  2057   0.090000   1.008000
 2058       HAL2    16  DPPC   H9Y  2058   0.090000   1.008000
 2059       CTL2    16  DPPC  C310  2059  -0.180000  12.011000
 2060       HAL2    16  DPPC  H10X  2060   0.090000   1.008000
 2061       HAL2    16  DPPC  H10Y  2061   0.090000   1.008000
 2062       CTL2    16  DPPC  C311  2062  -0.180000  12.011000
 2063       HAL2    16  DPPC  H11X  2063   0.090000   1.008000
 2064       HAL2    16  DPPC  H11Y  2064   0.090000   1.008000
 2065       CTL2    16  DPPC  C312  2065  -0.180000  12.011000
 2066       HAL2    16  DPPC  H12X  2066   0.090000   1.008000
 2067       HAL2    16  DPPC  H12Y  2067   0.090000   1.008000
 2068       CTL2    16  DPPC  C313  2068  -0.180000  12.011000
 2069       HAL2    16  DPPC  H13X  2069   0.090000   1.008000
 2070       HAL2    16  DPPC  H13Y  2070   0.090000   1.008000
 2071       CTL2    16  DPPC  C314  2071  -0.180000  12.011000
 2072       HAL2    16  DPPC  H14X  2072   0.090000   1.008000
 2073       HAL2    16  DPPC  H14Y  2073   0.090000   1.008000
 2074       CTL2    16  DPPC  C315  2074  -0.180000  12.011000
 2075       HAL2    16  DPPC  H15X  2075   0.090000   1.008000
 2076       HAL2    16  DPPC  H15Y  2076   0.090000   1.008000
 2077       CTL3    16  DPPC  C316  2077  -0.270000  12.011000
 2078       HAL3    16  DPPC  H16X  2078   0.090000   1.008000
 2079       HAL3    16  DPPC  H16Y  2079   0.090000   1.008000
 2080       HAL3    16  DPPC  H16Z  2080   0.090000   1.008000
 2081        NTL    17  DPPC     N  2081  -0.600000  14.007000
 2082       CTL5    17  DPPC   C13  2082  -0.350000  12.011000
 2083         HL    17  DPPC  H13A  2083   0.250000   1.008000
 2084         HL    17  DPPC  H13B  2084   0.250000   1.008000
 2085         HL    17  DPPC  H13C  2085   0.250000   1.008000
 2086       CTL5    17  DPPC   C14  2086  -0.350000  12.011000
 2087         HL    17  DPPC  H14A  2087   0.250000   1.008000
 2088         HL    17  DPPC  H14B  2088   0.250000   1.008000
 2089         HL    17  DPPC  H14C  2089   0.250000   1.008000
 2090       CTL5    17  DPPC   C15  2090  -0.350000  12.011000
 2091         HL    17  DPPC  H15A  2091   0.250000   1.008000
 2092         HL    17  DPPC  H15B  2092   0.250000   1.008000
 2093         HL    17  DPPC  H15C  2093   0.250000   1.008000
 2094       CTL2    17  DPPC   C12  2094  -0.100000  12.011000
 2095         HL    17  DPPC  H12A  2095   0.250000   1.008000
 2096         HL    17  DPPC  H12B  2096   0.250000   1.008000
 2097       CTL2    17  DPPC   C11  2097  -0.080000  12.011000
 2098       HAL2    17  DPPC  H11A  2098   0.090000   1.008000
 2099       HAL2    17  DPPC  H11B  2099   0.090000   1.008000
 2100         PL    17  DPPC     P  2100   1.500000  30.974001
 2101        O2L    17  DPPC   O13  2101  -0.780000  15.999400
 2102        O2L    17  DPPC   O14  2102  -0.780000  15.999400
 2103       OSLP    17  DPPC   O11  2103  -0.570000  15.999400
 2104       OSLP    17  DPPC   O12  2104  -0.570000  15.999400
 2105       CTL2    17  DPPC    C1  2105  -0.080000  12.011000
 2106       HAL2    17  DPPC    HA  2106   0.090000   1.008000
 2107       HAL2    17  DPPC    HB  2107   0.090000   1.008000
 2108       CTL1    17  DPPC    C2  2108   0.170000  12.011000
 2109       HAL1    17  DPPC    HS  2109   0.090000   1.008000
 2110        OSL    17  DPPC   O21  2110  -0.490000  15.999400
 2111         CL    17  DPPC   C21  2111   0.900000  12.011000
 2112        OBL    17  DPPC   O22  2112  -0.630000  15.999400
 2113       CTL2    17  DPPC   C22  2113  -0.220000  12.011000
 2114       HAL2    17  DPPC   H2R  2114   0.090000   1.008000
 2115       HAL2    17  DPPC   H2S  2115   0.090000   1.008000
 2116       CTL2    17  DPPC    C3  2116   0.080000  12.011000
 2117       HAL2    17  DPPC    HX  2117   0.090000   1.008000
 2118       HAL2    17  DPPC    HY  2118   0.090000   1.008000
 2119        OSL    17  DPPC   O31  2119  -0.490000  15.999400
 2120         CL    17  DPPC   C31  2120   0.900000  12.011000
 2121        OBL    17  DPPC   O32  2121  -0.630000  15.999400
 2122       CTL2    17  DPPC   C32  2122  -0.220000  12.011000
 2123       HAL2    17  DPPC   H2X  2123   0.090000   1.008000
 2124       HAL2    17  DPPC   H2Y  2124   0.090000   1.008000
 2125       CTL2    17  DPPC   C23  2125  -0.180000  12.011000
 2126       HAL2    17  DPPC   H3R  2126   0.090000   1.008000
 2127       HAL2    17  DPPC   H3S  2127   0.090000   1.008000
 2128       CTL2    17  DPPC   C24  2128  -0.180000  12.011000
 2129       HAL2    17  DPPC   H4R  2129   0.090000   1.008000
 2130       HAL2    17  DPPC   H4S  2130   0.090000   1.008000
 2131       CTL2    17  DPPC   C25  2131  -0.180000  12.011000
 2132       HAL2    17  DPPC   H5R  2132   0.090000   1.008000
 2133       HAL2    17  DPPC   H5S  2133   0.090000   1.008000
 2134       CTL2    17  DPPC   C26  2134  -0.180000  12.011000
 2135       HAL2    17  DPPC   H6R  2135   0.090000   1.008000
 2136       HAL2    17  DPPC   H6S  2136   0.090000   1.008000
 2137       CTL2    17  DPPC   C27  2137  -0.180000  12.011000
 2138       HAL2    17  DPPC   H7R  2138   0.090000   1.008000
 2139       HAL2    17  DPPC   H7S  2139   0.090000   1.008000
 2140       CTL2    17  DPPC   C28  2140  -0.180000  12.011000
 2141       HAL2    17  DPPC   H8R  2141   0.090000   1.008000
 2142       HAL2    17  DPPC   H8S  2142   0.090000   1.008000
 2143       CTL2    17  DPPC   C29  2143  -0.180000  12.011000
 2144       HAL2    17  DPPC   H9R  2144   0.090000   1.008000
 2145       HAL2    17  DPPC   H9S  2145   0.090000   1.008000
 2146       CTL2    17  DPPC  C210  2146  -0.180000  12.011000
 2147       HAL2    17  DPPC  H10R  2147   0.090000   1.008000
 2148       HAL2    17  DPPC  H10S  2148   0.090000   1.008000
 2149       CTL2    17  DPPC  C211  2149  -0.180000  12.011000
 2150       HAL2    17  DPPC  H11R  2150   0.090000   1.008000
 2151       HAL2    17  DPPC  H11S  2151   0.090000   1.008000
 2152       CTL2    17  DPPC  C212  2152  -0.180000  12.011000
 2153       HAL2    17  DPPC  H12R  2153   0.090000   1.008000
 2154       HAL2    17  DPPC  H12S  2154   0.090000   1.008000
 2155       CTL2    17  DPPC  C213  2155  -0.180000  12.011000
 2156       HAL2    17  DPPC  H13R  2156   0.090000   1.008000
 2157       HAL2    17  DPPC  H13S  2157   0.090000   1.008000
 2158       CTL2    17  DPPC  C214  2158  -0.180000  12.011000
 2159       HAL2    17  DPPC  H14R  2159   0.090000   1.008000
 2160       HAL2    17  DPPC  H14S  2160   0.090000   1.008000
 2161       CTL2    17  DPPC  C215  2161  -0.180000  12.011000
 2162       HAL2    17  DPPC  H15R  2162   0.090000   1.008000
 2163       HAL2    17  DPPC  H15S  2163   0.090000   1.008000
 2164       CTL3    17  DPPC  C216  2164  -0.270000  12.011000
 2165       HAL3    17  DPPC  H16R  2165   0.090000   1.008000
 2166       HAL3    17  DPPC  H16S  2166   0.090000   1.008000
 2167       HAL3    17  DPPC  H16T  2167   0.090000   1.008000
 2168       CTL2    17  DPPC   C33  2168  -0.180000  12.011000
 2169       HAL2    17  DPPC   H3X  2169   0.090000   1.008000
 2170       HAL2    17  DPPC   H3Y  2170   0.090000   1.008000
 2171       CTL2    17  DPPC   C34  2171  -0.180000  12.011000
 2172       HAL2    17  DPPC   H4X  2172   0.090000   1.008000
 2173       HAL2    17  DPPC   H4Y  2173   0.090000   1.008000
 2174       CTL2    17  DPPC   C35  2174  -0.180000  12.011000
 2175       HAL2    17  DPPC   H5X  2175   0.090000   1.008000
 2176       HAL2    17  DPPC   H5Y  2176   0.090000   1.008000
 2177       CTL2    17  DPPC   C36  2177  -0.180000  12.011000
 2178       HAL2    17  DPPC   H6X  2178   0.090000   1.008000
 2179       HAL2    17  DPPC   H6Y  2179   0.090000   1.008000
 2180       CTL2    17  DPPC   C37  2180  -0.180000  12.011000
 2181       HAL2    17  DPPC   H7X  2181   0.090000   1.008000
 2182       HAL2    17  DPPC   H7Y  2182   0.090000   1.008000
 2183       CTL2    17  DPPC   C38  2183  -0.180000  12.011000
 2184       HAL2    17  DPPC   H8X  2184   0.090000   1.008000
 2185       HAL2    17  DPPC   H8Y  2185   0.090000   1.008000
 2186       CTL2    17  DPPC   C39  2186  -0.180000  12.011000
 2187       HAL2    17  DPPC   H9X  2187   0.090000   1.008000
 2188       HAL2    17  DPPC   H9Y  2188   0.090000   1.008000
 2189       CTL2    17  DPPC  C310  2189  -0.180000  12.011000
 2190       HAL2    17  DPPC  H10X  2190   0.090000   1.008000
 2191       HAL2    17  DPPC  H10Y  2191   0.090000   1.008000
 2192       CTL2    17  DPPC  C311  2192  -0.180000  12.011000
 2193       HAL2    17  DPPC  H11X  2193   0.090000   1.008000
 2194       HAL2    17  DPPC  H11Y  2194   0.090000   1.008000
 2195       CTL2    17  DPPC  C312  2195  -0.180000  12.011000
 2196       HAL2    17  DPPC  H12X  2196   0.090000   1.008000
 2197       HAL2    17  DPPC  H12Y  2197   0.090000   1.008000
 2198       CTL2    17  DPPC  C313  2198  -0.180000  12.011000
 2199       HAL2    17  DPPC  H13X  2199   0.090000   1.008000
 2200       HAL2    17  DPPC  H13Y  2200   0.090000   1.008000
 2201       CTL2    17  DPPC  C314  2201  -0.180000  12.011000
 2202       HAL2    17  DPPC  H14X  2202   0.090000   1.008000
 2203       HAL2    17  DPPC  H14Y  2203   0.090000   1.008000
 2204       CTL2    17  DPPC  C315  2204  -0.180000  12.011000
 2205       HAL2    17  DPPC  H15X  2205   0.090000   1.008000
 2206       HAL2    17  DPPC  H15Y  2206   0.090000   1.008000
 2207       CTL3    17  DPPC  C316  2207  -0.270000  12.011000
 2208       HAL3    17  DPPC  H16X  2208   0.090000   1.008000
 2209       HAL3    17  DPPC  H16Y  2209   0.090000   1.008000
 2210       HAL3    17  DPPC  H16Z  2210   0.090000   1.008000
 2211        NTL    18  DPPC     N  2211  -0.600000  14.007000
 2212       CTL5    18  DPPC   C13  2212  -0.350000  12.011000
 2213         HL    18  DPPC  H13A  2213   0.250000   1.008000
 2214         HL    18  DPPC  H13B  2214   0.250000   1.008000
 2215         HL    18  DPPC  H13C  2215   0.250000   1.008000
 2216       CTL5    18  DPPC   C14  2216  -0.350000  12.011000
 2217         HL    18  DPPC  H14A  2217   0.250000   1.008000
 2218         HL    18  DPPC  H14B  2218   0.250000   1.008000
 2219         HL    18  DPPC  H14C  2219   0.250000   1.008000
 2220       CTL5    18  DPPC   C15  2220  -0.350000  12.011000
 2221         HL    18  DPPC  H15A  2221   0.250000   1.008000
 2222         HL    18  DPPC  H15B  2222   0.250000   1.008000
 2223         HL    18  DPPC  H15C  2223   0.250000   1.008000
 2224       CTL2    18  DPPC   C12  2224  -0.100000  12.011000
 2225         HL    18  DPPC  H12A  2225   0.250000   1.008000
 2226         HL    18  DPPC  H12B  2226   0.250000   1.008000
 2227       CTL2    18  DPPC   C11  2227  -0.080000  12.011000
 2228       HAL2    18  DPPC  H11A  2228   0.090000   1.008000
 2229       HAL2    18  DPPC  H11B  2229   0.090000   1.008000
 2230         PL    18  DPPC     P  2230   1.500000  30.974001
 2231        O2L    18  DPPC   O13  2231  -0.780000  15.999400
 2232        O2L    18  DPPC   O14  2232  -0.780000  15.999400
 2233       OSLP    18  DPPC   O11  2233  -0.570000  15.999400
 2234       OSLP    18  DPPC   O12  2234  -0.570000  15.999400
 2235       CTL2    18  DPPC    C1  2235  -0.080000  12.011000
 2236       HAL2    18  DPPC    HA  2236   0.090000   1.008000
 2237       HAL2    18  DPPC    HB  2237   0.090000   1.008000
 2238       CTL1    18  DPPC    C2  2238   0.170000  12.011000
 2239       HAL1    18  DPPC    HS  2239   0.090000   1.008000
 2240        OSL    18  DPPC   O21  2240  -0.490000  15.999400
 2241         CL    18  DPPC   C21  2241   0.900000  12.011000
 2242        OBL    18  DPPC   O22  2242  -0.630000  15.999400
 2243       CTL2    18  DPPC   C22  2243  -0.220000  12.011000
 2244       HAL2    18  DPPC   H2R  2244   0.090000   1.008000
 2245       HAL2    18  DPPC   H2S  2245   0.090000   1.008000
 2246       CTL2    18  DPPC    C3  2246   0.080000  12.011000
 2247       HAL2    18  DPPC    HX  2247   0.090000   1.008000
 2248       HAL2    18  DPPC    HY  2248   0.090000   1.008000
 2249        OSL    18  DPPC   O31  2249  -0.490000  15.999400
 2250         CL    18  DPPC   C31  2250   0.900000  12.011000
 2251        OBL    18  DPPC   O32  2251  -0.630000  15.999400
 2252       CTL2    18  DPPC   C32  2252  -0.220000  12.011000
 2253       HAL2    18  DPPC   H2X  2253   0.090000   1.008000
 2254       HAL2    18  DPPC   H2Y  2254   0.090000   1.008000
 2255       CTL2    18  DPPC   C23  2255  -0.180000  12.011000
 2256       HAL2    18  DPPC   H3R  2256   0.090000   1.008000
 2257       HAL2    18  DPPC   H3S  2257   0.090000   1.008000
 2258       CTL2    18  DPPC   C24  2258  -0.180000  12.011000
 2259       HAL2    18  DPPC   H4R  2259   0.090000   1.008000
 2260       HAL2    18  DPPC   H4S  2260   0.090000   1.008000
 2261       CTL2    18  DPPC   C25  2261  -0.180000  12.011000
 2262       HAL2    18  DPPC   H5R  2262   0.090000   1.008000
 2263       HAL2    18  DPPC   H5S  2263   0.090000   1.008000
 2264       CTL2    18  DPPC   C26  2264  -0.180000  12.011000
 2265       HAL2    18  DPPC   H6R  2265   0.090000   1.008000
 2266       HAL2    18  DPPC   H6S  2266   0.090000   1.008000
 2267       CTL2    18  DPPC   C27  2267  -0.180000  12.011000
 2268       HAL2    18  DPPC   H7R  2268   0.090000   1.008000
 2269       HAL2    18  DPPC   H7S  2269   0.090000   1.008000
 2270       CTL2    18  DPPC   C28  2270  -0.180000  12.011000
 2271       HAL2    18  DPPC   H8R  2271   0.090000   1.008000
 2272       HAL2    18  DPPC   H8S  2272   0.090000   1.008000
 2273       CTL2    18  DPPC   C29  2273  -0.180000  12.011000
 2274       HAL2    18  DPPC   H9R  2274   0.090000   1.008000
 2275       HAL2    18  DPPC   H9S  2275   0.090000   1.008000
 2276       CTL2    18  DPPC  C210  2276  -0.180000  12.011000
 2277       HAL2    18  DPPC  H10R  2277   0.090000   1.008000
 2278       HAL2    18  DPPC  H10S  2278   0.090000   1.008000
 2279       CTL2    18  DPPC  C211  2279  -0.180000  12.011000
 2280       HAL2    18  DPPC  H11R  2280   0.090000   1.008000
 2281       HAL2    18  DPPC  H11S  2281   0.090000   1.008000
 2282       CTL2    18  DPPC  C212  2282  -0.180000  12.011000
 2283       HAL2    18  DPPC  H12R  2283   0.090000   1.008000
 2284       HAL2    18  DPPC  H12S  2284   0.090000   1.008000
 2285       CTL2    18  DPPC  C213  2285  -0.180000  12.011000
 2286       HAL2    18  DPPC  H13R  2286   0.090000   1.008000
 2287       HAL2    18  DPPC  H13S  2287   0.090000   1.008000
 2288       CTL2    18  DPPC  C214  2288  -0.180000  12.011000
 2289       HAL2    18  DPPC  H14R  2289   0.090000   1.008000
 2290       HAL2    18  DPPC  H14S  2290   0.090000   1.008000
 2291       CTL2    18  DPPC  C215  2291  -0.180000  12.011000
 2292       HAL2    18  DPPC  H15R  2292   0.090000   1.008000
 2293       HAL2    18  DPPC  H15S  2293   0.090000   1.008000
 2294       CTL3    18  DPPC  C216  2294  -0.270000  12.011000
 2295       HAL3    18  DPPC  H16R  2295   0.090000   1.008000
 2296       HAL3    18  DPPC  H16S  2296   0.090000   1.008000
 2297       HAL3    18  DPPC  H16T  2297   0.090000   1.008000
 2298       CTL2    18  DPPC   C33  2298  -0.180000  12.011000
 2299       HAL2    18  DPPC   H3X  2299   0.090000   1.008000
 2300       HAL2    18  DPPC   H3Y  2300   0.090000   1.008000
 2301       CTL2    18  DPPC   C34  2301  -0.180000  12.011000
 2302       HAL2    18  DPPC   H4X  2302   0.090000   1.008000
 2303       HAL2    18  DPPC   H4Y  2303   0.090000   1.008000
 2304       CTL2    18  DPPC   C35  2304  -0.180000  12.011000
 2305       HAL2    18  DPPC   H5X  2305   0.090000   1.008000
 2306       HAL2    18  DPPC   H5Y  2306   0.090000   1.008000
 2307       CTL2    18  DPPC   C36  2307  -0.180000  12.011000
 2308       HAL2    18  DPPC   H6X  2308   0.090000   1.008000
 2309       HAL2    18  DPPC   H6Y  2309   0.090000   1.008000
 2310       CTL2    18  DPPC   C37  2310  -0.180000  12.011000
 2311       HAL2    18  DPPC   H7X  2311   0.090000   1.008000
 2312       HAL2    18  DPPC   H7Y  2312   0.090000   1.008000
 2313       CTL2    18  DPPC   C38  2313  -0.180000  12.011000
 2314       HAL2    18  DPPC   H8X  2314   0.090000   1.008000
 2315       HAL2    18  DPPC   H8Y  2315   0.090000   1.008000
 2316       CTL2    18  DPPC   C39  2316  -0.180000  12.011000
 2317       HAL2    18  DPPC   H9X  2317   0.090000   1.008000
 2318       HAL2    18  DPPC   H9Y  2318   0.090000   1.008000
 2319       CTL2    18  DPPC  C310  2319  -0.180000  12.011000
 2320       HAL2    18  DPPC  H10X  2320   0.090000   1.008000
 2321       HAL2    18  DPPC  H10Y  2321   0.090000   1.008000
 2322       CTL2    18  DPPC  C311  2322  -0.180000  12.011000
 2323       HAL2    18  DPPC  H11X  2323   0.090000   1.008000
 2324       HAL2    18  DPPC  H11Y  2324   0.090000   1.008000
 2325       CTL2    18  DPPC  C312  2325  -0.180000  12.011000
 2326       HAL2    18  DPPC  H12X  2326   0.090000   1.008000
 2327       HAL2    18  DPPC  H12Y  2327   0.090000   1.008000
 2328       CTL2    18  DPPC  C313  2328  -0.180000  12.011000
 2329       HAL2    18  DPPC  H13X  2329   0.090000   1.008000
 2330       HAL2    18  DPPC  H13Y  2330   0.090000   1.008000
 2331       CTL2    18  DPPC  C314  2331  -0.180000  12.011000
 2332       HAL2    18  DPPC  H14X  2332   0.090000   1.008000
 2333       HAL2    18  DPPC  H14Y  2333   0.090000   1.008000
 2334       CTL2    18  DPPC  C315  2334  -0.180000  12.011000
 2335       HAL2    18  DPPC  H15X  2335   0.090000   1.008000
 2336       HAL2    18  DPPC  H15Y  2336   0.090000   1.008000
 2337       CTL3    18  DPPC  C316  2337  -0.270000  12.011000
 2338       HAL3    18  DPPC  H16X  2338   0.090000   1.008000
 2339       HAL3    18  DPPC  H16Y  2339   0.090000   1.008000
 2340       HAL3    18  DPPC  H16Z  2340   0.090000   1.008000
 2341        NTL    19  DPPC     N  2341  -0.600000  14.007000
 2342       CTL5    19  DPPC   C13  2342  -0.350000  12.011000
 2343         HL    19  DPPC  H13A  2343   0.250000   1.008000
 2344         HL    19  DPPC  H13B  2344   0.250000   1.008000
 2345         HL    19  DPPC  H13C  2345   0.250000   1.008000
 2346       CTL5    19  DPPC   C14  2346  -0.350000  12.011000
 2347         HL    19  DPPC  H14A  2347   0.250000   1.008000
 2348         HL    19  DPPC  H14B  2348   0.250000   1.008000
 2349         HL    19  DPPC  H14C  2349   0.250000   1.008000
 2350       CTL5    19  DPPC   C15  2350  -0.350000  12.011000
 2351         HL    19  DPPC  H15A  2351   0.250000   1.008000
 2352         HL    19  DPPC  H15B  2352   0.250000   1.008000
 2353         HL    19  DPPC  H15C  2353   0.250000   1.008000
 2354       CTL2    19  DPPC   C12  2354  -0.100000  12.011000
 2355         HL    19  DPPC  H12A  2355   0.250000   1.008000
 2356         HL    19  DPPC  H12B  2356   0.250000   1.008000
 2357       CTL2    19  DPPC   C11  2357  -0.080000  12.011000
 2358       HAL2    19  DPPC  H11A  2358   0.090000   1.008000
 2359       HAL2    19  DPPC  H11B  2359   0.090000   1.008000
 2360         PL    19  DPPC     P  2360   1.500000  30.974001
 2361        O2L    19  DPPC   O13  2361  -0.780000  15.999400
 2362        O2L    19  DPPC   O14  2362  -0.780000  15.999400
 2363       OSLP    19  DPPC   O11  2363  -0.570000  15.999400
 2364       OSLP    19  DPPC   O12  2364  -0.570000  15.999400
 2365       CTL2    19  DPPC    C1  2365  -0.080000  12.011000
 2366       HAL2    19  DPPC    HA  2366   0.090000   1.008000
 2367       HAL2    19  DPPC    HB  2367   0.090000   1.008000
 2368       CTL1    19  DPPC    C2  2368   0.170000  12.011000
 2369       HAL1    19  DPPC    HS  2369   0.090000   1.008000
 2370        OSL    19  DPPC   O21  2370  -0.490000  15.999400
 2371         CL    19  DPPC   C21  2371   0.900000  12.011000
 2372        OBL    19  DPPC   O22  2372  -0.630000  15.999400
 2373       CTL2    19  DPPC   C22  2373  -0.220000  12.011000
 2374       HAL2    19  DPPC   H2R  2374   0.090000   1.008000
 2375       HAL2    19  DPPC   H2S  2375   0.090000   1.008000
 2376       CTL2    19  DPPC    C3  2376   0.080000  12.011000
 2377       HAL2    19  DPPC    HX  2377   0.090000   1.008000
 2378       HAL2    19  DPPC    HY  2378   0.090000   1.008000
 2379        OSL    19  DPPC   O31  2379  -0.490000  15.999400
 2380         CL    19  DPPC   C31  2380   0.900000  12.011000
 2381        OBL    19  DPPC   O32  2381  -0.630000  15.999400
 2382       CTL2    19  DPPC   C32  2382  -0.220000  12.011000
 2383       HAL2    19  DPPC   H2X  2383   0.090000   1.008000
 2384       HAL2    19  DPPC   H2Y  2384   0.090000   1.008000
 2385       CTL2    19  DPPC   C23  2385  -0.180000  12.011000
 2386       HAL2    19  DPPC   H3R  2386   0.090000   1.008000
 2387       HAL2    19  DPPC   H3S  2387   0.090000   1.008000
 2388       CTL2    19  DPPC   C24  2388  -0.180000  12.011000
 2389       HAL2    19  DPPC   H4R  2389   0.090000   1.008000
 2390       HAL2    19  DPPC   H4S  2390   0.090000   1.008000
 2391       CTL2    19  DPPC   C25  2391  -0.180000  12.011000
 2392       HAL2    19  DPPC   H5R  2392   0.090000   1.008000
 2393       HAL2    19  DPPC   H5S  2393   0.090000   1.008000
 2394       CTL2    19  DPPC   C26  2394  -0.180000  12.011000
 2395       HAL2    19  DPPC   H6R  2395   0.090000   1.008000
 2396       HAL2    19  DPPC   H6S  2396   0.090000   1.008000
 2397       CTL2    19  DPPC   C27  2397  -0.180000  12.011000
 2398       HAL2    19  DPPC   H7R  2398   0.090000   1.008000
 2399       HAL2    19  DPPC   H7S  2399   0.090000   1.008000
 2400       CTL2    19  DPPC   C28  2400  -0.180000  12.011000
 2401       HAL2    19  DPPC   H8R  2401   0.090000   1.008000
 2402       HAL2    19  DPPC   H8S  2402   0.090000   1.008000
 2403       CTL2    19  DPPC   C29  2403  -0.180000  12.011000
 2404       HAL2    19  DPPC   H9R  2404   0.090000   1.008000
 2405       HAL2    19  DPPC   H9S  2405   0.090000   1.008000
 2406       CTL2    19  DPPC  C210  2406  -0.180000  12.011000
 2407       HAL2    19  DPPC  H10R  2407   0.090000   1.008000
 2408       HAL2    19  DPPC  H10S  2408   0.090000   1.008000
 2409       CTL2    19  DPPC  C211  2409  -0.180000  12.011000
 2410       HAL2    19  DPPC  H11R  2410   0.090000   1.008000
 2411       HAL2    19  DPPC  H11S  2411   0.090000   1.008000
 2412       CTL2    19  DPPC  C212  2412  -0.180000  12.011000
 2413       HAL2    19  DPPC  H12R  2413   0.090000   1.008000
 2414       HAL2    19  DPPC  H12S  2414   0.090000   1.008000
 2415       CTL2    19  DPPC  C213  2415  -0.180000  12.011000
 2416       HAL2    19  DPPC  H13R  2416   0.090000   1.008000
 2417       HAL2    19  DPPC  H13S  2417   0.090000   1.008000
 2418       CTL2    19  DPPC  C214  2418  -0.180000  12.011000
 2419       HAL2    19  DPPC  H14R  2419   0.090000   1.008000
 2420       HAL2    19  DPPC  H14S  2420   0.090000   1.008000
 2421       CTL2    19  DPPC  C215  2421  -0.180000  12.011000
 2422       HAL2    19  DPPC  H15R  2422   0.090000   1.008000
 2423       HAL2    19  DPPC  H15S  2423   0.090000   1.008000
 2424       CTL3    19  DPPC  C216  2424  -0.270000  12.011000
 2425       HAL3    19  DPPC  H16R  2425   0.090000   1.008000
 2426       HAL3    19  DPPC  H16S  2426   0.090000   1.008000
 2427       HAL3    19  DPPC  H16T  2427   0.090000   1.008000
 2428       CTL2    19  DPPC   C33  2428  -0.180000  12.011000
 2429       HAL2    19  DPPC   H3X  2429   0.090000   1.008000
 2430       HAL2    19  DPPC   H3Y  2430   0.090000   1.008000
 2431       CTL2    19  DPPC   C34  2431  -0.180000  12.011000
 2432       HAL2    19  DPPC   H4X  2432   0.090000   1.008000
 2433       HAL2    19  DPPC   H4Y  2433   0.090000   1.008000
 2434       CTL2    19  DPPC   C35  2434  -0.180000  12.011000
 2435       HAL2    19  DPPC   H5X  2435   0.090000   1.008000
 2436       HAL2    19  DPPC   H5Y  2436   0.090000   1.008000
 2437       CTL2    19  DPPC   C36  2437  -0.180000  12.011000
 2438       HAL2    19  DPPC   H6X  2438   0.090000   1.008000
 2439       HAL2    19  DPPC   H6Y  2439   0.090000   1.008000
 2440       CTL2    19  DPPC   C37  2440  -0.180000  12.011000
 2441       HAL2    19  DPPC   H7X  2441   0.090000   1.008000
 2442       HAL2    19  DPPC   H7Y  2442   0.090000   1.008000
 2443       CTL2    19  DPPC   C38  2443  -0.180000  12.011000
 2444       HAL2    19  DPPC   H8X  2444   0.090000   1.008000
 2445       HAL2    19  DPPC   H8Y  2445   0.090000   1.008000
 2446       CTL2    19  DPPC   C39  2446  -0.180000  12.011000
 2447       HAL2    19  DPPC   H9X  2447   0.090000   1.008000
 2448       HAL2    19  DPPC   H9Y  2448   0.090000   1.008000
 2449       CTL2    19  DPPC  C310  2449  -0.180000  12.011000
 2450       HAL2    19  DPPC  H10X  2450   0.090000   1.008000
 2451       HAL2    19  DPPC  H10Y  2451   0.090000   1.008000
 2452       CTL2    19  DPPC  C311  2452  -0.180000  12.011000
 2453       HAL2    19  DPPC  H11X  2453   0.090000   1.008000
 2454       HAL2    19  DPPC  H11Y  2454   0.090000   1.008000
 2455       CTL2    19  DPPC  C312  2455  -0.180000  12.011000
 2456       HAL2    19  DPPC  H12X  2456   0.090000   1.008000
 2457       HAL2    19  DPPC  H12Y  2457   0.090000   1.008000
 2458       CTL2    19  DPPC  C313  2458  -0.180000  12.011000
 2459       HAL2    19  DPPC  H13X  2459   0.090000   1.008000
 2460       HAL2    19  DPPC  H13Y  2460   0.090000   1.008000
 2461       CTL2    19  DPPC  C314  2461  -0.180000  12.011000
 2462       HAL2    19  DPPC  H14X  2462   0.090000   1.008000
 2463       HAL2    19  DPPC  H14Y  2463   0.090000   1.008000
 2464       CTL2    19  DPPC  C315  2464  -0.180000  12.011000
 2465       HAL2    19  DPPC  H15X  2465   0.090000   1.008000
 2466       HAL2    19  DPPC  H15Y  2466   0.090000   1.008000
 2467       CTL3    19  DPPC  C316  2467  -0.270000  12.011000
 2468       HAL3    19  DPPC  H16X  2468   0.090000   1.008000
 2469       HAL3    19  DPPC  H16Y  2469   0.090000   1.008000
 2470       HAL3    19  DPPC  H16Z  2470   0.090000   1.008000
 2471        NTL    20  DPPC     N  2471  -0.600000  14.007000
 2472       CTL5    20  DPPC   C13  2472  -0.350000  12.011000
 2473         HL    20  DPPC  H13A  2473   0.250000   1.008000
 2474         HL    20  DPPC  H13B  2474   0.250000   1.008000
 2475         HL    20  DPPC  H13C  2475   0.250000   1.008000
 2476       CTL5    20  DPPC   C14  2476  -0.350000  12.011000
 2477         HL    20  DPPC  H14A  2477   0.250000   1.008000
 2478         HL    20  DPPC  H14B  2478   0.250000   1.008000
 2479         HL    20  DPPC  H14C  2479   0.250000   1.008000
 2480       CTL5    20  DPPC   C15  2480  -0.350000  12.011000
 2481         HL    20  DPPC  H15A  2481   0.250000   1.008000
 2482         HL    20  DPPC  H15B  2482   0.250000   1.008000
 2483         HL    20  DPPC  H15C  2483   0.250000   1.008000
 2484       CTL2    20  DPPC   C12  2484  -0.100000  12.011000
 2485         HL    20  DPPC  H12A  2485   0.250000   1.008000
 2486         HL    20  DPPC  H12B  2486   0.250000   1.008000
 2487       CTL2    20  DPPC   C11  2487  -0.080000  12.011000
 2488       HAL2    20  DPPC  H11A  2488   0.090000   1.008000
 2489       HAL2    20  DPPC  H11B  2489   0.090000   1.008000
 2490         PL    20  DPPC     P  2490   1.500000  30.974001
 2491        O2L    20  DPPC   O13  2491  -0.780000  15.999400
 2492        O2L    20  DPPC   O14  2492  -0.780000  15.999400
 2493       OSLP    20  DPPC   O11  2493  -0.570000  15.999400
 2494       OSLP    20  DPPC   O12  2494  -0.570000  15.999400
 2495       CTL2    20  DPPC    C1  2495  -0.080000  12.011000
 2496       HAL2    20  DPPC    HA  2496   0.090000   1.008000
 2497       HAL2    20  DPPC    HB  2497   0.090000   1.008000
 2498       CTL1    20  DPPC    C2  2498   0.170000  12.011000
 2499       HAL1    20  DPPC    HS  2499   0.090000   1.008000
 2500        OSL    20  DPPC   O21  2500  -0.490000  15.999400
 2501         CL    20  DPPC   C21  2501   0.900000  12.011000
 2502        OBL    20  DPPC   O22  2502  -0.630000  15.999400
 2503       CTL2    20  DPPC   C22  2503  -0.220000  12.011000
 2504       HAL2    20  DPPC   H2R  2504   0.090000   1.008000
 2505       HAL2    20  DPPC   H2S  2505   0.090000   1.008000
 2506       CTL2    20  DPPC    C3  2506   0.080000  12.011000
 2507       HAL2    20  DPPC    HX  2507   0.090000   1.008000
 2508       HAL2    20  DPPC    HY  2508   0.090000   1.008000
 2509        OSL    20  DPPC   O31  2509  -0.490000  15.999400
 2510         CL    20  DPPC   C31  2510   0.900000  12.011000
 2511        OBL    20  DPPC   O32  2511  -0.630000  15.999400
 2512       CTL2    20  DPPC   C32  2512  -0.220000  12.011000
 2513       HAL2    20  DPPC   H2X  2513   0.090000   1.008000
 2514       HAL2    20  DPPC   H2Y  2514   0.090000   1.008000
 2515       CTL2    20  DPPC   C23  2515  -0.180000  12.011000
 2516       HAL2    20  DPPC   H3R  2516   0.090000   1.008000
 2517       HAL2    20  DPPC   H3S  2517   0.090000   1.008000
 2518       CTL2    20  DPPC   C24  2518  -0.180000  12.011000
 2519       HAL2    20  DPPC   H4R  2519   0.090000   1.008000
 2520       HAL2    20  DPPC   H4S  2520   0.090000   1.008000
 2521       CTL2    20  DPPC   C25  2521  -0.180000  12.011000
 2522       HAL2    20  DPPC   H5R  2522   0.090000   1.008000
 2523       HAL2    20  DPPC   H5S  2523   0.090000   1.008000
 2524       CTL2    20  DPPC   C26  2524  -0.180000  12.011000
 2525       HAL2    20  DPPC   H6R  2525   0.090000   1.008000
 2526       HAL2    20  DPPC   H6S  2526   0.090000   1.008000
 2527       CTL2    20  DPPC   C27  2527  -0.180000  12.011000
 2528       HAL2    20  DPPC   H7R  2528   0.090000   1.008000
 2529       HAL2    20  DPPC   H7S  2529   0.090000   1.008000
 2530       CTL2    20  DPPC   C28  2530  -0.180000  12.011000
 2531       HAL2    20  DPPC   H8R  2531   0.090000   1.008000
 2532       HAL2    20  DPPC   H8S  2532   0.090000   1.008000
 2533       CTL2    20  DPPC   C29  2533  -0.180000  12.011000
 2534       HAL2    20  DPPC   H9R  2534   0.090000   1.008000
 2535       HAL2    20  DPPC   H9S  2535   0.090000   1.008000
 2536       CTL2    20  DPPC  C210  2536  -0.180000  12.011000
 2537       HAL2    20  DPPC  H10R  2537   0.090000   1.008000
 2538       HAL2    20  DPPC  H10S  2538   0.090000   1.008000
 2539       CTL2    20  DPPC  C211  2539  -0.180000  12.011000
 2540       HAL2    20  DPPC  H11R  2540   0.090000   1.008000
 2541       HAL2    20  DPPC  H11S  2541   0.090000   1.008000
 2542       CTL2    20  DPPC  C212  2542  -0.180000  12.011000
 2543       HAL2    20  DPPC  H12R  2543   0.090000   1.008000
 2544       HAL2    20  DPPC  H12S  2544   0.090000   1.008000
 2545       CTL2    20  DPPC  C213  2545  -0.180000  12.011000
 2546       HAL2    20  DPPC  H13R  2546   0.090000   1.008000
 2547       HAL2    20  DPPC  H13S  2547   0.090000   1.008000
 2548       CTL2    20  DPPC  C214  2548  -0.180000  12.011000
 2549       HAL2    20  DPPC  H14R  2549   0.090000   1.008000
 2550       HAL2    20  DPPC  H14S  2550   0.090000   1.008000
 2551       CTL2    20  DPPC  C215  2551  -0.180000  12.011000
 2552       HAL2    20  DPPC  H15R  2552   0.090000   1.008000
 2553       HAL2    20  DPPC  H15S  2553   0.090000   1.008000
 2554       CTL3    20  DPPC  C216  2554  -0.270000  12.011000
 2555       HAL3    20  DPPC  H16R  2555   0.090000   1.008000
 2556       HAL3    20  DPPC  H16S  2556   0.090000   1.008000
 2557       HAL3    20  DPPC  H16T  2557   0.090000   1.008000
 2558       CTL2    20  DPPC   C33  2558  -0.180000  12.011000
 2559       HAL2    20  DPPC   H3X  2559   0.090000   1.008000
 2560       HAL2    20  DPPC   H3Y  2560   0.090000   1.008000
 2561       CTL2    20  DPPC   C34  2561  -0.180000  12.011000
 2562       HAL2    20  DPPC   H4X  2562   0.090000   1.008000
 2563       HAL2    20  DPPC   H4Y  2563   0.090000   1.008000
 2564       CTL2    20  DPPC   C35  2564  -0.180000  12.011000
 2565       HAL2    20  DPPC   H5X  2565   0.090000   1.008000
 2566       HAL2    20  DPPC   H5Y  2566   0.090000   1.008000
 2567       CTL2    20  DPPC   C36  2567  -0.180000  12.011000
 2568       HAL2    20  DPPC   H6X  2568   0.090000   1.008000
 2569       HAL2    20  DPPC   H6Y  2569   0.090000   1.008000
 2570       CTL2    20  DPPC   C37  2570  -0.180000  12.011000
 2571       HAL2    20  DPPC   H7X  2571   0.090000   1.008000
 2572       HAL2    20  DPPC   H7Y  2572   0.090000   1.008000
 2573       CTL2    20  DPPC   C38  2573  -0.180000  12.011000
 2574       HAL2    20  DPPC   H8X  2574   0.090000   1.008000
 2575       HAL2    20  DPPC   H8Y  2575   0.090000   1.008000
 2576       CTL2    20  DPPC   C39  2576  -0.180000  12.011000
 2577       HAL2    20  DPPC   H9X  2577   0.090000   1.008000
 2578       HAL2    20  DPPC   H9Y  2578   0.090000   1.008000
 2579       CTL2    20  DPPC  C310  2579  -0.180000  12.011000
 2580       HAL2    20  DPPC  H10X  2580   0.090000   1.008000
 2581       HAL2    20  DPPC  H10Y  2581   0.090000   1.008000
 2582       CTL2    20  DPPC  C311  2582  -0.180000  12.011000
 2583       HAL2    20  DPPC  H11X  2583   0.090000   1.008000
 2584       HAL2    20  DPPC  H11Y  2584   0.090000   1.008000
 2585       CTL2    20  DPPC  C312  2585  -0.180000  12.011000
 2586       HAL2    20  DPPC  H12X  2586   0.090000   1.008000
 2587       HAL2    20  DPPC  H12Y  2587   0.090000   1.008000
 2588       CTL2    20  DPPC  C313  2588  -0.180000  12.011000
 2589       HAL2    20  DPPC  H13X  2589   0.090000   1.008000
 2590       HAL2    20  DPPC  H13Y  2590   0.090000   1.008000
 2591       CTL2    20  DPPC  C314  2591  -0.180000  12.011000
 2592       HAL2    20  DPPC  H14X  2592   0.090000   1.008000
 2593       HAL2    20  DPPC  H14Y  2593   0.090000   1.008000
 2594       CTL2    20  DPPC  C315  2594  -0.180000  12.011000
 2595       HAL2    20  DPPC  H15X  2595   0.090000   1.008000
 2596       HAL2    20  DPPC  H15Y  2596   0.090000   1.008000
 2597       CTL3    20  DPPC  C316  2597  -0.270000  12.011000
 2598       HAL3    20  DPPC  H16X  2598   0.090000   1.008000
 2599       HAL3    20  DPPC  H16Y  2599   0.090000   1.008000
 2600       HAL3    20  DPPC  H16Z  2600   0.090000   1.008000
 2601        NTL    21  DPPC     N  2601  -0.600000  14.007000
 2602       CTL5    21  DPPC   C13  2602  -0.350000  12.011000
 2603         HL    21  DPPC  H13A  2603   0.250000   1.008000
 2604         HL    21  DPPC  H13B  2604   0.250000   1.008000
 2605         HL    21  DPPC  H13C  2605   0.250000   1.008000
 2606       CTL5    21  DPPC   C14  2606  -0.350000  12.011000
 2607         HL    21  DPPC  H14A  2607   0.250000   1.008000
 2608         HL    21  DPPC  H14B  2608   0.250000   1.008000
 2609         HL    21  DPPC  H14C  2609   0.250000   1.008000
 2610       CTL5    21  DPPC   C15  2610  -0.350000  12.011000
 2611         HL    21  DPPC  H15A  2611   0.250000   1.008000
 2612         HL    21  DPPC  H15B  2612   0.250000   1.008000
 2613         HL    21  DPPC  H15C  2613   0.250000   1.008000
 2614       CTL2    21  DPPC   C12  2614  -0.100000  12.011000
 2615         HL    21  DPPC  H12A  2615   0.250000   1.008000
 2616         HL    21  DPPC  H12B  2616   0.250000   1.008000
 2617       CTL2    21  DPPC   C11  2617  -0.080000  12.011000
 2618       HAL2    21  DPPC  H11A  2618   0.090000   1.008000
 2619       HAL2    21  DPPC  H11B  2619   0.090000   1.008000
 2620         PL    21  DPPC     P  2620   1.500000  30.974001
 2621        O2L    21  DPPC   O13  2621  -0.780000  15.999400
 2622        O2L    21  DPPC   O14  2622  -0.780000  15.999400
 2623       OSLP    21  DPPC   O11  2623  -0.570000  15.999400
 2624       OSLP    21  DPPC   O12  2624  -0.570000  15.999400
 2625       CTL2    21  DPPC    C1  2625  -0.080000  12.011000
 2626       HAL2    21  DPPC    HA  2626   0.090000   1.008000
 2627       HAL2    21  DPPC    HB  2627   0.090000   1.008000
 2628       CTL1    21  DPPC    C2  2628   0.170000  12.011000
 2629       HAL1    21  DPPC    HS  2629   0.090000   1.008000
 2630        OSL    21  DPPC   O21  2630  -0.490000  15.999400
 2631         CL    21  DPPC   C21  2631   0.900000  12.011000
 2632        OBL    21  DPPC   O22  2632  -0.630000  15.999400
 2633       CTL2    21  DPPC   C22  2633  -0.220000  12.011000
 2634       HAL2    21  DPPC   H2R  2634   0.090000   1.008000
 2635       HAL2    21  DPPC   H2S  2635   0.090000   1.008000
 2636       CTL2    21  DPPC    C3  2636   0.080000  12.011000
 2637       HAL2    21  DPPC    HX  2637   0.090000   1.008000
 2638       HAL2    21  DPPC    HY  2638   0.090000   1.008000
 2639        OSL    21  DPPC   O31  2639  -0.490000  15.999400
 2640         CL    21  DPPC   C31  2640   0.900000  12.011000
 2641        OBL    21  DPPC   O32  2641  -0.630000  15.999400
 2642       CTL2    21  DPPC   C32  2642  -0.220000  12.011000
 2643       HAL2    21  DPPC   H2X  2643   0.090000   1.008000
 2644       HAL2    21  DPPC   H2Y  2644   0.090000   1.008000
 2645       CTL2    21  DPPC   C23  2645  -0.180000  12.011000
 2646       HAL2    21  DPPC   H3R  2646   0.090000   1.008000
 2647       HAL2    21  DPPC   H3S  2647   0.090000   1.008000
 2648       CTL2    21  DPPC   C24  2648  -0.180000  12.011000
 2649       HAL2    21  DPPC   H4R  2649   0.090000   1.008000
 2650       HAL2    21  DPPC   H4S  2650   0.090000   1.008000
 2651       CTL2    21  DPPC   C25  2651  -0.180000  12.011000
 2652       HAL2    21  DPPC   H5R  2652   0.090000   1.008000
 2653       HAL2    21  DPPC   H5S  2653   0.090000   1.008000
 2654       CTL2    21  DPPC   C26  2654  -0.180000  12.011000
 2655       HAL2    21  DPPC   H6R  2655   0.090000   1.008000
 2656       HAL2    21  DPPC   H6S  2656   0.090000   1.008000
 2657       CTL2    21  DPPC   C27  2657  -0.180000  12.011000
 2658       HAL2    21  DPPC   H7R  2658   0.090000   1.008000
 2659       HAL2    21  DPPC   H7S  2659   0.090000   1.008000
 2660       CTL2    21  DPPC   C28  2660  -0.180000  12.011000
 2661       HAL2    21  DPPC   H8R  2661   0.090000   1.008000
 2662       HAL2    21  DPPC   H8S  2662   0.090000   1.008000
 2663       CTL2    21  DPPC   C29  2663  -0.180000  12.011000
 2664       HAL2    21  DPPC   H9R  2664   0.090000   1.008000
 2665       HAL2    21  DPPC   H9S  2665   0.090000   1.008000
 2666       CTL2    21  DPPC  C210  2666  -0.180000  12.011000
 2667       HAL2    21  DPPC  H10R  2667   0.090000   1.008000
 2668       HAL2    21  DPPC  H10S  2668   0.090000   1.008000
 2669       CTL2    21  DPPC  C211  2669  -0.180000  12.011000
 2670       HAL2    21  DPPC  H11R  2670   0.090000   1.008000
 2671       HAL2    21  DPPC  H11S  2671   0.090000   1.008000
 2672       CTL2    21  DPPC  C212  2672  -0.180000  12.011000
 2673       HAL2    21  DPPC  H12R  2673   0.090000   1.008000
 2674       HAL2    21  DPPC  H12S  2674   0.090000   1.008000
 2675       CTL2    21  DPPC  C213  2675  -0.180000  12.011000
 2676       HAL2    21  DPPC  H13R  2676   0.090000   1.008000
 2677       HAL2    21  DPPC  H13S  2677   0.090000   1.008000
 2678       CTL2    21  DPPC  C214  2678  -0.180000  12.011000
 2679       HAL2    21  DPPC  H14R  2679   0.090000   1.008000
 2680       HAL2    21  DPPC  H14S  2680   0.090000   1.008000
 2681       CTL2    21  DPPC  C215  2681  -0.180000  12.011000
 2682       HAL2    21  DPPC  H15R  2682   0.090000   1.008000
 2683       HAL2    21  DPPC  H15S  2683   0.090000   1.008000
 2684       CTL3    21  DPPC  C216  2684  -0.270000  12.011000
 2685       HAL3    21  DPPC  H16R  2685   0.090000   1.008000
 2686       HAL3    21  DPPC  H16S  2686   0.090000   1.008000
 2687       HAL3    21  DPPC  H16T  2687   0.090000   1.008000
 2688       CTL2    21  DPPC   C33  2688  -0.180000  12.011000
 2689       HAL2    21  DPPC   H3X  2689   0.090000   1.008000
 2690       HAL2    21  DPPC   H3Y  2690   0.090000   1.008000
 2691       CTL2    21  DPPC   C34  2691  -0.180000  12.011000
 2692       HAL2    21  DPPC   H4X  2692   0.090000   1.008000
 2693       HAL2    21  DPPC   H4Y  2693   0.090000   1.008000
 2694       CTL2    21  DPPC   C35  2694  -0.180000  12.011000
 2695       HAL2    21  DPPC   H5X  2695   0.090000   1.008000
 2696       HAL2    21  DPPC   H5Y  2696   0.090000   1.008000
 2697       CTL2    21  DPPC   C36  2697  -0.180000  12.011000
 2698       HAL2    21  DPPC   H6X  2698   0.090000   1.008000
 2699       HAL2    21  DPPC   H6Y  2699   0.090000   1.008000
 2700       CTL2    21  DPPC   C37  2700  -0.180000  12.011000
 2701       HAL2    21  DPPC   H7X  2701   0.090000   1.008000
 2702       HAL2    21  DPPC   H7Y  2702   0.090000   1.008000
 2703       CTL2    21  DPPC   C38  2703  -0.180000  12.011000
 2704       HAL2    21  DPPC   H8X  2704   0.090000   1.008000
 2705       HAL2    21  DPPC   H8Y  2705   0.090000   1.008000
 2706       CTL2    21  DPPC   C39  2706  -0.180000  12.011000
 2707       HAL2    21  DPPC   H9X  2707   0.090000   1.008000
 2708       HAL2    21  DPPC   H9Y  2708   0.090000   1.008000
 2709       CTL2    21  DPPC  C310  2709  -0.180000  12.011000
 2710       HAL2    21  DPPC  H10X  2710   0.090000   1.008000
 2711       HAL2    21  DPPC  H10Y  2711   0.090000   1.008000
 2712       CTL2    21  DPPC  C311  2712  -0.180000  12.011000
 2713       HAL2    21  DPPC  H11X  2713   0.090000   1.008000
 2714       HAL2    21  DPPC  H11Y  2714   0.090000   1.008000
 2715       CTL2    21  DPPC  C312  2715  -0.180000  12.011000
 2716       HAL2    21  DPPC  H12X  2716   0.090000   1.008000
 2717       HAL2    21  DPPC  H12Y  2717   0.090000   1.008000
 2718       CTL2    21  DPPC  C313  2718  -0.180000  12.011000
 2719       HAL2    21  DPPC  H13X  2719   0.090000   1.008000
 2720       HAL2    21  DPPC  H13Y  2720   0.090000   1.008000
 2721       CTL2    21  DPPC  C314  2721  -0.180000  12.011000
 2722       HAL2    21  DPPC  H14X  2722   0.090000   1.008000
 2723       HAL2    21  DPPC  H14Y  2723   0.090000   1.008000
 2724       CTL2    21  DPPC  C315  2724  -0.180000  12.011000
 2725       HAL2    21  DPPC  H15X  2725   0.090000   1.008000
 2726       HAL2    21  DPPC  H15Y  2726   0.090000   1.008000
 2727       CTL3    21  DPPC  C316  2727  -0.270000  12.011000
 2728       HAL3    21  DPPC  H16X  2728   0.090000   1.008000
 2729       HAL3    21  DPPC  H16Y  2729   0.090000   1.008000
 2730       HAL3    21  DPPC  H16Z  2730   0.090000   1.008000
 2731        NTL    22  DPPC     N  2731  -0.600000  14.007000
 2732       CTL5    22  DPPC   C13  2732  -0.350000  12.011000
 2733         HL    22  DPPC  H13A  2733   0.250000   1.008000
 2734         HL    22  DPPC  H13B  2734   0.250000   1.008000
 2735         HL    22  DPPC  H13C  2735   0.250000   1.008000
 2736       CTL5    22  DPPC   C14  2736  -0.350000  12.011000
 2737         HL    22  DPPC  H14A  2737   0.250000   1.008000
 2738         HL    22  DPPC  H14B  2738   0.250000   1.008000
 2739         HL    22  DPPC  H14C  2739   0.250000   1.008000
 2740       CTL5    22  DPPC   C15  2740  -0.350000  12.011000
 2741         HL    22  DPPC  H15A  2741   0.250000   1.008000
 2742         HL    22  DPPC  H15B  2742   0.250000   1.008000
 2743         HL    22  DPPC  H15C  2743   0.250000   1.008000
 2744       CTL2    22  DPPC   C12  2744  -0.100000  12.011000
 2745         HL    22  DPPC  H12A  2745   0.250000   1.008000
 2746         HL    22  DPPC  H12B  2746   0.250000   1.008000
 2747       CTL2    22  DPPC   C11  2747  -0.080000  12.011000
 2748       HAL2    22  DPPC  H11A  2748   0.090000   1.008000
 2749       HAL2    22  DPPC  H11B  2749   0.090000   1.008000
 2750         PL    22  DPPC     P  2750   1.500000  30.974001
 2751        O2L    22  DPPC   O13  2751  -0.780000  15.999400
 2752        O2L    22  DPPC   O14  2752  -0.780000  15.999400
 2753       OSLP    22  DPPC   O11  2753  -0.570000  15.999400
 2754       OSLP    22  DPPC   O12  2754  -0.570000  15.999400
 2755       CTL2    22  DPPC    C1  2755  -0.080000  12.011000
 2756       HAL2    22  DPPC    HA  2756   0.090000   1.008000
 2757       HAL2    22  DPPC    HB  2757   0.090000   1.008000
 2758       CTL1    22  DPPC    C2  2758   0.170000  12.011000
 2759       HAL1    22  DPPC    HS  2759   0.090000   1.008000
 2760        OSL    22  DPPC   O21  2760  -0.490000  15.999400
 2761         CL    22  DPPC   C21  2761   0.900000  12.011000
 2762        OBL    22  DPPC   O22  2762  -0.630000  15.999400
 2763       CTL2    22  DPPC   C22  2763  -0.220000  12.011000
 2764       HAL2    22  DPPC   H2R  2764   0.090000   1.008000
 2765       HAL2    22  DPPC   H2S  2765   0.090000   1.008000
 2766       CTL2    22  DPPC    C3  2766   0.080000  12.011000
 2767       HAL2    22  DPPC    HX  2767   0.090000   1.008000
 2768       HAL2    22  DPPC    HY  2768   0.090000   1.008000
 2769        OSL    22  DPPC   O31  2769  -0.490000  15.999400
 2770         CL    22  DPPC   C31  2770   0.900000  12.011000
 2771        OBL    22  DPPC   O32  2771  -0.630000  15.999400
 2772       CTL2    22  DPPC   C32  2772  -0.220000  12.011000
 2773       HAL2    22  DPPC   H2X  2773   0.090000   1.008000
 2774       HAL2    22  DPPC   H2Y  2774   0.090000   1.008000
 2775       CTL2    22  DPPC   C23  2775  -0.180000  12.011000
 2776       HAL2    22  DPPC   H3R  2776   0.090000   1.008000
 2777       HAL2    22  DPPC   H3S  2777   0.090000   1.008000
 2778       CTL2    22  DPPC   C24  2778  -0.180000  12.011000
 2779       HAL2    22  DPPC   H4R  2779   0.090000   1.008000
 2780       HAL2    22  DPPC   H4S  2780   0.090000   1.008000
 2781       CTL2    22  DPPC   C25  2781  -0.180000  12.011000
 2782       HAL2    22  DPPC   H5R  2782   0.090000   1.008000
 2783       HAL2    22  DPPC   H5S  2783   0.090000   1.008000
 2784       CTL2    22  DPPC   C26  2784  -0.180000  12.011000
 2785       HAL2    22  DPPC   H6R  2785   0.090000   1.008000
 2786       HAL2    22  DPPC   H6S  2786   0.090000   1.008000
 2787       CTL2    22  DPPC   C27  2787  -0.180000  12.011000
 2788       HAL2    22  DPPC   H7R  2788   0.090000   1.008000
 2789       HAL2    22  DPPC   H7S  2789   0.090000   1.008000
 2790       CTL2    22  DPPC   C28  2790  -0.180000  12.011000
 2791       HAL2    22  DPPC   H8R  2791   0.090000   1.008000
 2792       HAL2    22  DPPC   H8S  2792   0.090000   1.008000
 2793       CTL2    22  DPPC   C29  2793  -0.180000  12.011000
 2794       HAL2    22  DPPC   H9R  2794   0.090000   1.008000
 2795       HAL2    22  DPPC   H9S  2795   0.090000   1.008000
 2796       CTL2    22  DPPC  C210  2796  -0.180000  12.011000
 2797       HAL2    22  DPPC  H10R  2797   0.090000   1.008000
 2798       HAL2    22  DPPC  H10S  2798   0.090000   1.008000
 2799       CTL2    22  DPPC  C211  2799  -0.180000  12.011000
 2800       HAL2    22  DPPC  H11R  2800   0.090000   1.008000
 2801       HAL2    22  DPPC  H11S  2801   0.090000   1.008000
 2802       CTL2    22  DPPC  C212  2802  -0.180000  12.011000
 2803       HAL2    22  DPPC  H12R  2803   0.090000   1.008000
 2804       HAL2    22  DPPC  H12S  2804   0.090000   1.008000
 2805       CTL2    22  DPPC  C213  2805  -0.180000  12.011000
 2806       HAL2    22  DPPC  H13R  2806   0.090000   1.008000
 2807       HAL2    22  DPPC  H13S  2807   0.090000   1.008000
 2808       CTL2    22  DPPC  C214  2808  -0.180000  12.011000
 2809       HAL2    22  DPPC  H14R  2809   0.090000   1.008000
 2810       HAL2    22  DPPC  H14S  2810   0.090000   1.008000
 2811       CTL2    22  DPPC  C215  2811  -0.180000  12.011000
 2812       HAL2    22  DPPC  H15R  2812   0.090000   1.008000
 2813       HAL2    22  DPPC  H15S  2813   0.090000   1.008000
 2814       CTL3    22  DPPC  C216  2814  -0.270000  12.011000
 2815       HAL3    22  DPPC  H16R  2815   0.090000   1.008000
 2816       HAL3    22  DPPC  H16S  2816   0.090000   1.008000
 2817       HAL3    22  DPPC  H16T  2817   0.090000   1.008000
 2818       CTL2    22  DPPC   C33  2818  -0.180000  12.011000
 2819       HAL2    22  DPPC   H3X  2819   0.090000   1.008000
 2820       HAL2    22  DPPC   H3Y  2820   0.090000   1.008000
 2821       CTL2    22  DPPC   C34  2821  -0.180000  12.011000
 2822       HAL2    22  DPPC   H4X  2822   0.090000   1.008000
 2823       HAL2    22  DPPC   H4Y  2823   0.090000   1.008000
 2824       CTL2    22  DPPC   C35  2824  -0.180000  12.011000
 2825       HAL2    22  DPPC   H5X  2825   0.090000   1.008000
 2826       HAL2    22  DPPC   H5Y  2826   0.090000   1.008000
 2827       CTL2    22  DPPC   C36  2827  -0.180000  12.011000
 2828       HAL2    22  DPPC   H6X  2828   0.090000   1.008000
 2829       HAL2    22  DPPC   H6Y  2829   0.090000   1.008000
 2830       CTL2    22  DPPC   C37  2830  -0.180000  12.011000
 2831       HAL2    22  DPPC   H7X  2831   0.090000   1.008000
 2832       HAL2    22  DPPC   H7Y  2832   0.090000   1.008000
 2833       CTL2    22  DPPC   C38  2833  -0.180000  12.011000
 2834       HAL2    22  DPPC   H8X  2834   0.090000   1.008000
 2835       HAL2    22  DPPC   H8Y  2835   0.090000   1.008000
 2836       CTL2    22  DPPC   C39  2836  -0.180000  12.011000
 2837       HAL2    22  DPPC   H9X  2837   0.090000   1.008000
 2838       HAL2    22  DPPC   H9Y  2838   0.090000   1.008000
 2839       CTL2    22  DPPC  C310  2839  -0.180000  12.011000
 2840       HAL2    22  DPPC  H10X  2840   0.090000   1.008000
 2841       HAL2    22  DPPC  H10Y  2841   0.090000   1.008000
 2842       CTL2    22  DPPC  C311  2842  -0.180000  12.011000
 2843       HAL2    22  DPPC  H11X  2843   0.090000   1.008000
 2844       HAL2    22  DPPC  H11Y  2844   0.090000   1.008000
 2845       CTL2    22  DPPC  C312  2845  -0.180000  12.011000
 2846       HAL2    22  DPPC  H12X  2846   0.090000   1.008000
 2847       HAL2    22  DPPC  H12Y  2847   0.090000   1.008000
 2848       CTL2    22  DPPC  C313  2848  -0.180000  12.011000
 2849       HAL2    22  DPPC  H13X  2849   0.090000   1.008000
 2850       HAL2    22  DPPC  H13Y  2850   0.090000   1.008000
 2851       CTL2    22  DPPC  C314  2851  -0.180000  12.011000
 2852       HAL2    22  DPPC  H14X  2852   0.090000   1.008000
 2853       HAL2    22  DPPC  H14Y  2853   0.090000   1.008000
 2854       CTL2    22  DPPC  C315  2854  -0.180000  12.011000
 2855       HAL2    22  DPPC  H15X  2855   0.090000   1.008000
 2856       HAL2    22  DPPC  H15Y  2856   0.090000   1.008000
 2857       CTL3    22  DPPC  C316  2857  -0.270000  12.011000
 2858       HAL3    22  DPPC  H16X  2858   0.090000   1.008000
 2859       HAL3    22  DPPC  H16Y  2859   0.090000   1.008000
 2860       HAL3    22  DPPC  H16Z  2860   0.090000   1.008000
 2861        NTL    23  DPPC     N  2861  -0.600000  14.007000
 2862       CTL5    23  DPPC   C13  2862  -0.350000  12.011000
 2863         HL    23  DPPC  H13A  2863   0.250000   1.008000
 2864         HL    23  DPPC  H13B  2864   0.250000   1.008000
 2865         HL    23  DPPC  H13C  2865   0.250000   1.008000
 2866       CTL5    23  DPPC   C14  2866  -0.350000  12.011000
 2867         HL    23  DPPC  H14A  2867   0.250000   1.008000
 2868         HL    23  DPPC  H14B  2868   0.250000   1.008000
 2869         HL    23  DPPC  H14C  2869   0.250000   1.008000
 2870       CTL5    23  DPPC   C15  2870  -0.350000  12.011000
 2871         HL    23  DPPC  H15A  2871   0.250000   1.008000
 2872         HL    23  DPPC  H15B  2872   0.250000   1.008000
 2873         HL    23  DPPC  H15C  2873   0.250000   1.008000
 2874       CTL2    23  DPPC   C12  2874  -0.100000  12.011000
 2875         HL    23  DPPC  H12A  2875   0.250000   1.008000
 2876         HL    23  DPPC  H12B  2876   0.250000   1.008000
 2877       CTL2    23  DPPC   C11  2877  -0.080000  12.011000
 2878       HAL2    23  DPPC  H11A  2878   0.090000   1.008000
 2879       HAL2    23  DPPC  H11B  2879   0.090000   1.008000
 2880         PL    23  DPPC     P  2880   1.500000  30.974001
 2881        O2L    23  DPPC   O13  2881  -0.780000  15.999400
 2882        O2L    23  DPPC   O14  2882  -0.780000  15.999400
 2883       OSLP    23  DPPC   O11  2883  -0.570000  15.999400
 2884       OSLP    23  DPPC   O12  2884  -0.570000  15.999400
 2885       CTL2    23  DPPC    C1  2885  -0.080000  12.011000
 2886       HAL2    23  DPPC    HA  2886   0.090000   1.008000
 2887       HAL2    23  DPPC    HB  2887   0.090000   1.008000
 2888       CTL1    23  DPPC    C2  2888   0.170000  12.011000
 2889       HAL1    23  DPPC    HS  2889   0.090000   1.008000
 2890        OSL    23  DPPC   O21  2890  -0.490000  15.999400
 2891         CL    23  DPPC   C21  2891   0.900000  12.011000
 2892        OBL    23  DPPC   O22  2892  -0.630000  15.999400
 2893       CTL2    23  DPPC   C22  2893  -0.220000  12.011000
 2894       HAL2    23  DPPC   H2R  2894   0.090000   1.008000
 2895       HAL2    23  DPPC   H2S  2895   0.090000   1.008000
 2896       CTL2    23  DPPC    C3  2896   0.080000  12.011000
 2897       HAL2    23  DPPC    HX  2897   0.090000   1.008000
 2898       HAL2    23  DPPC    HY  2898   0.090000   1.008000
 2899        OSL    23  DPPC   O31  2899  -0.490000  15.999400
 2900         CL    23  DPPC   C31  2900   0.900000  12.011000
 2901        OBL    23  DPPC   O32  2901  -0.630000  15.999400
 2902       CTL2    23  DPPC   C32  2902  -0.220000  12.011000
 2903       HAL2    23  DPPC   H2X  2903   0.090000   1.008000
 2904       HAL2    23  DPPC   H2Y  2904   0.090000   1.008000
 2905       CTL2    23  DPPC   C23  2905  -0.180000  12.011000
 2906       HAL2    23  DPPC   H3R  2906   0.090000   1.008000
 2907       HAL2    23  DPPC   H3S  2907   0.090000   1.008000
 2908       CTL2    23  DPPC   C24  2908  -0.180000  12.011000
 2909       HAL2    23  DPPC   H4R  2909   0.090000   1.008000
 2910       HAL2    23  DPPC   H4S  2910   0.090000   1.008000
 2911       CTL2    23  DPPC   C25  2911  -0.180000  12.011000
 2912       HAL2    23  DPPC   H5R  2912   0.090000   1.008000
 2913       HAL2    23  DPPC   H5S  2913   0.090000   1.008000
 2914       CTL2    23  DPPC   C26  2914  -0.180000  12.011000
 2915       HAL2    23  DPPC   H6R  2915   0.090000   1.008000
 2916       HAL2    23  DPPC   H6S  2916   0.090000   1.008000
 2917       CTL2    23  DPPC   C27  2917  -0.180000  12.011000
 2918       HAL2    23  DPPC   H7R  2918   0.090000   1.008000
 2919       HAL2    23  DPPC   H7S  2919   0.090000   1.008000
 2920       CTL2    23  DPPC   C28  2920  -0.180000  12.011000
 2921       HAL2    23  DPPC   H8R  2921   0.090000   1.008000
 2922       HAL2    23  DPPC   H8S  2922   0.090000   1.008000
 2923       CTL2    23  DPPC   C29  2923  -0.180000  12.011000
 2924       HAL2    23  DPPC   H9R  2924   0.090000   1.008000
 2925       HAL2    23  DPPC   H9S  2925   0.090000   1.008000
 2926       CTL2    23  DPPC  C210  2926  -0.180000  12.011000
 2927       HAL2    23  DPPC  H10R  2927   0.090000   1.008000
 2928       HAL2    23  DPPC  H10S  2928   0.090000   1.008000
 2929       CTL2    23  DPPC  C211  2929  -0.180000  12.011000
 2930       HAL2    23  DPPC  H11R  2930   0.090000   1.008000
 2931       HAL2    23  DPPC  H11S  2931   0.090000   1.008000
 2932       CTL2    23  DPPC  C212  2932  -0.180000  12.011000
 2933       HAL2    23  DPPC  H12R  2933   0.090000   1.008000
 2934       HAL2    23  DPPC  H12S  2934   0.090000   1.008000
 2935       CTL2    23  DPPC  C213  2935  -0.180000  12.011000
 2936       HAL2    23  DPPC  H13R  2936   0.090000   1.008000
 2937       HAL2    23  DPPC  H13S  2937   0.090000   1.008000
 2938       CTL2    23  DPPC  C214  2938  -0.180000  12.011000
 2939       HAL2    23  DPPC  H14R  2939   0.090000   1.008000
 2940       HAL2    23  DPPC  H14S  2940   0.090000   1.008000
 2941       CTL2    23  DPPC  C215  2941  -0.180000  12.011000
 2942       HAL2    23  DPPC  H15R  2942   0.090000   1.008000
 2943       HAL2    23  DPPC  H15S  2943   0.090000   1.008000
 2944       CTL3    23  DPPC  C216  2944  -0.270000  12.011000
 2945       HAL3    23  DPPC  H16R  2945   0.090000   1.008000
 2946       HAL3    23  DPPC  H16S  2946   0.090000   1.008000
 2947       HAL3    23  DPPC  H16T  2947   0.090000   1.008000
 2948       CTL2    23  DPPC   C33  2948  -0.180000  12.011000
 2949       HAL2    23  DPPC   H3X  2949   0.090000   1.008000
 2950       HAL2    23  DPPC   H3Y  2950   0.090000   1.008000
 2951       CTL2    23  DPPC   C34  2951  -0.180000  12.011000
 2952       HAL2    23  DPPC   H4X  2952   0.090000   1.008000
 2953       HAL2    23  DPPC   H4Y  2953   0.090000   1.008000
 2954       CTL2    23  DPPC   C35  2954  -0.180000  12.011000
 2955       HAL2    23  DPPC   H5X  2955   0.090000   1.008000
 2956       HAL2    23  DPPC   H5Y  2956   0.090000   1.008000
 2957       CTL2    23  DPPC   C36  2957  -0.180000  12.011000
 2958       HAL2    23  DPPC   H6X  2958   0.090000   1.008000
 2959       HAL2    23  DPPC   H6Y  2959   0.090000   1.008000
 2960       CTL2    23  DPPC   C37  2960  -0.180000  12.011000
 2961       HAL2    23  DPPC   H7X  2961   0.090000   1.008000
 2962       HAL2    23  DPPC   H7Y  2962   0.090000   1.008000
 2963       CTL2    23  DPPC   C38  2963  -0.180000  12.011000
 2964       HAL2    23  DPPC   H8X  2964   0.090000   1.008000
 2965       HAL2    23  DPPC   H8Y  2965   0.090000   1.008000
 2966       CTL2    23  DPPC   C39  2966  -0.180000  12.011000
 2967       HAL2    23  DPPC   H9X  2967   0.090000   1.008000
 2968       HAL2    23  DPPC   H9Y  2968   0.090000   1.008000
 2969       CTL2    23  DPPC  C310  2969  -0.180000  12.011000
 2970       HAL2    23  DPPC  H10X  2970   0.090000   1.008000
 2971       HAL2    23  DPPC  H10Y  2971   0.090000   1.008000
 2972       CTL2    23  DPPC  C311  2972  -0.180000  12.011000
 2973       HAL2    23  DPPC  H11X  2973   0.090000   1.008000
 2974       HAL2    23  DPPC  H11Y  2974   0.090000   1.008000
 2975       CTL2    23  DPPC  C312  2975  -0.180000  12.011000
 2976       HAL2    23  DPPC  H12X  2976   0.090000   1.008000
 2977       HAL2    23  DPPC  H12Y  2977   0.090000   1.008000
 2978       CTL2    23  DPPC  C313  2978  -0.180000  12.011000
 2979       HAL2    23  DPPC  H13X  2979   0.090000   1.008000
 2980       HAL2    23  DPPC  H13Y  2980   0.090000   1.008000
 2981       CTL2    23  DPPC  C314  2981  -0.180000  12.011000
 2982       HAL2    23  DPPC  H14X  2982   0.090000   1.008000
 2983       HAL2    23  DPPC  H14Y  2983   0.090000   1.008000
 2984       CTL2    23  DPPC  C315  2984  -0.180000  12.011000
 2985       HAL2    23  DPPC  H15X  2985   0.090000   1.008000
 2986       HAL2    23  DPPC  H15Y  2986   0.090000   1.008000
 2987       CTL3    23  DPPC  C316  2987  -0.270000  12.011000
 2988       HAL3    23  DPPC  H16X  2988   0.090000   1.008000
 2989       HAL3    23  DPPC  H16Y  2989   0.090000   1.008000
 2990       HAL3    23  DPPC  H16Z  2990   0.090000   1.008000
 2991        NTL    24  DPPC     N  2991  -0.600000  14.007000
 2992       CTL5    24  DPPC   C13  2992  -0.350000  12.011000
 2993         HL    24  DPPC  H13A  2993   0.250000   1.008000
 2994         HL    24  DPPC  H13B  2994   0.250000   1.008000
 2995         HL    24  DPPC  H13C  2995   0.250000   1.008000
 2996       CTL5    24  DPPC   C14  2996  -0.350000  12.011000
 2997         HL    24  DPPC  H14A  2997   0.250000   1.008000
 2998         HL    24  DPPC  H14B  2998   0.250000   1.008000
 2999         HL    24  DPPC  H14C  2999   0.250000   1.008000
 3000       CTL5    24  DPPC   C15  3000  -0.350000  12.011000
 3001         HL    24  DPPC  H15A  3001   0.250000   1.008000
 3002         HL    24  DPPC  H15B  3002   0.250000   1.008000
 3003         HL    24  DPPC  H15C  3003   0.250000   1.008000
 3004       CTL2    24  DPPC   C12  3004  -0.100000  12.011000
 3005         HL    24  DPPC  H12A  3005   0.250000   1.008000
 3006         HL    24  DPPC  H12B  3006   0.250000   1.008000
 3007       CTL2    24  DPPC   C11  3007  -0.080000  12.011000
 3008       HAL2    24  DPPC  H11A  3008   0.090000   1.008000
 3009       HAL2    24  DPPC  H11B  3009   0.090000   1.008000
 3010         PL    24  DPPC     P  3010   1.500000  30.974001
 3011        O2L    24  DPPC   O13  3011  -0.780000  15.999400
 3012        O2L    24  DPPC   O14  3012  -0.780000  15.999400
 3013       OSLP    24  DPPC   O11  3013  -0.570000  15.999400
 3014       OSLP    24  DPPC   O12  3014  -0.570000  15.999400
 3015       CTL2    24  DPPC    C1  3015  -0.080000  12.011000
 3016       HAL2    24  DPPC    HA  3016   0.090000   1.008000
 3017       HAL2    24  DPPC    HB  3017   0.090000   1.008000
 3018       CTL1    24  DPPC    C2  3018   0.170000  12.011000
 3019       HAL1    24  DPPC    HS  3019   0.090000   1.008000
 3020        OSL    24  DPPC   O21  3020  -0.490000  15.999400
 3021         CL    24  DPPC   C21  3021   0.900000  12.011000
 3022        OBL    24  DPPC   O22  3022  -0.630000  15.999400
 3023       CTL2    24  DPPC   C22  3023  -0.220000  12.011000
 3024       HAL2    24  DPPC   H2R  3024   0.090000   1.008000
 3025       HAL2    24  DPPC   H2S  3025   0.090000   1.008000
 3026       CTL2    24  DPPC    C3  3026   0.080000  12.011000
 3027       HAL2    24  DPPC    HX  3027   0.090000   1.008000
 3028       HAL2    24  DPPC    HY  3028   0.090000   1.008000
 3029        OSL    24  DPPC   O31  3029  -0.490000  15.999400
 3030         CL    24  DPPC   C31  3030   0.900000  12.011000
 3031        OBL    24  DPPC   O32  3031  -0.630000  15.999400
 3032       CTL2    24  DPPC   C32  3032  -0.220000  12.011000
 3033       HAL2    24  DPPC   H2X  3033   0.090000   1.008000
 3034       HAL2    24  DPPC   H2Y  3034   0.090000   1.008000
 3035       CTL2    24  DPPC   C23  3035  -0.180000  12.011000
 3036       HAL2    24  DPPC   H3R  3036   0.090000   1.008000
 3037       HAL2    24  DPPC   H3S  3037   0.090000   1.008000
 3038       CTL2    24  DPPC   C24  3038  -0.180000  12.011000
 3039       HAL2    24  DPPC   H4R  3039   0.090000   1.008000
 3040       HAL2    24  DPPC   H4S  3040   0.090000   1.008000
 3041       CTL2    24  DPPC   C25  3041  -0.180000  12.011000
 3042       HAL2    24  DPPC   H5R  3042   0.090000   1.008000
 3043       HAL2    24  DPPC   H5S  3043   0.090000   1.008000
 3044       CTL2    24  DPPC   C26  3044  -0.180000  12.011000
 3045       HAL2    24  DPPC   H6R  3045   0.090000   1.008000
 3046       HAL2    24  DPPC   H6S  3046   0.090000   1.008000
 3047       CTL2    24  DPPC   C27  3047  -0.180000  12.011000
 3048       HAL2    24  DPPC   H7R  3048   0.090000   1.008000
 3049       HAL2    24  DPPC   H7S  3049   0.090000   1.008000
 3050       CTL2    24  DPPC   C28  3050  -0.180000  12.011000
 3051       HAL2    24  DPPC   H8R  3051   0.090000   1.008000
 3052       HAL2    24  DPPC   H8S  3052   0.090000   1.008000
 3053       CTL2    24  DPPC   C29  3053  -0.180000  12.011000
 3054       HAL2    24  DPPC   H9R  3054   0.090000   1.008000
 3055       HAL2    24  DPPC   H9S  3055   0.090000   1.008000
 3056       CTL2    24  DPPC  C210  3056  -0.180000  12.011000
 3057       HAL2    24  DPPC  H10R  3057   0.090000   1.008000
 3058       HAL2    24  DPPC  H10S  3058   0.090000   1.008000
 3059       CTL2    24  DPPC  C211  3059  -0.180000  12.011000
 3060       HAL2    24  DPPC  H11R  3060   0.090000   1.008000
 3061       HAL2    24  DPPC  H11S  3061   0.090000   1.008000
 3062       CTL2    24  DPPC  C212  3062  -0.180000  12.011000
 3063       HAL2    24  DPPC  H12R  3063   0.090000   1.008000
 3064       HAL2    24  DPPC  H12S  3064   0.090000   1.008000
 3065       CTL2    24  DPPC  C213  3065  -0.180000  12.011000
 3066       HAL2    24  DPPC  H13R  3066   0.090000   1.008000
 3067       HAL2    24  DPPC  H13S  3067   0.090000   1.008000
 3068       CTL2    24  DPPC  C214  3068  -0.180000  12.011000
 3069       HAL2    24  DPPC  H14R  3069   0.090000   1.008000
 3070       HAL2    24  DPPC  H14S  3070   0.090000   1.008000
 3071       CTL2    24  DPPC  C215  3071  -0.180000  12.011000
 3072       HAL2    24  DPPC  H15R  3072   0.090000   1.008000
 3073       HAL2    24  DPPC  H15S  3073   0.090000   1.008000
 3074       CTL3    24  DPPC  C216  3074  -0.270000  12.011000
 3075       HAL3    24  DPPC  H16R  3075   0.090000   1.008000
 3076       HAL3    24  DPPC  H16S  3076   0.090000   1.008000
 3077       HAL3    24  DPPC  H16T  3077   0.090000   1.008000
 3078       CTL2    24  DPPC   C33  3078  -0.180000  12.011000
 3079       HAL2    24  DPPC   H3X  3079   0.090000   1.008000
 3080       HAL2    24  DPPC   H3Y  3080   0.090000   1.008000
 3081       CTL2    24  DPPC   C34  3081  -0.180000  12.011000
 3082       HAL2    24  DPPC   H4X  3082   0.090000   1.008000
 3083       HAL2    24  DPPC   H4Y  3083   0.090000   1.008000
 3084       CTL2    24  DPPC   C35  3084  -0.180000  12.011000
 3085       HAL2    24  DPPC   H5X  3085   0.090000   1.008000
 3086       HAL2    24  DPPC   H5Y  3086   0.090000   1.008000
 3087       CTL2    24  DPPC   C36  3087  -0.180000  12.011000
 3088       HAL2    24  DPPC   H6X  3088   0.090000   1.008000
 3089       HAL2    24  DPPC   H6Y  3089   0.090000   1.008000
 3090       CTL2    24  DPPC   C37  3090  -0.180000  12.011000
 3091       HAL2    24  DPPC   H7X  3091   0.090000   1.008000
 3092       HAL2    24  DPPC   H7Y  3092   0.090000   1.008000
 3093       CTL2    24  DPPC   C38  3093  -0.180000  12.011000
 3094       HAL2    24  DPPC   H8X  3094   0.090000   1.008000
 3095       HAL2    24  DPPC   H8Y  3095   0.090000   1.008000
 3096       CTL2    24  DPPC   C39  3096  -0.180000  12.011000
 3097       HAL2    24  DPPC   H9X  3097   0.090000   1.008000
 3098       HAL2    24  DPPC   H9Y  3098   0.090000   1.008000
 3099       CTL2    24  DPPC  C310  3099  -0.180000  12.011000
 3100       HAL2    24  DPPC  H10X  3100   0.090000   1.008000
 3101       HAL2    24  DPPC  H10Y  3101   0.090000   1.008000
 3102       CTL2    24  DPPC  C311  3102  -0.180000  12.011000
 3103       HAL2    24  DPPC  H11X  3103   0.090000   1.008000
 3104       HAL2    24  DPPC  H11Y  3104   0.090000   1.008000
 3105       CTL2    24  DPPC  C312  3105  -0.180000  12.011000
 3106       HAL2    24  DPPC  H12X  3106   0.090000   1.008000
 3107       HAL2    24  DPPC  H12Y  3107   0.090000   1.008000
 3108       CTL2    24  DPPC  C313  3108  -0.180000  12.011000
 3109       HAL2    24  DPPC  H13X  3109   0.090000   1.008000
 3110       HAL2    24  DPPC  H13Y  3110   0.090000   1.008000
 3111       CTL2    24  DPPC  C314  3111  -0.180000  12.011000
 3112       HAL2    24  DPPC  H14X  3112   0.090000   1.008000
 3113       HAL2    24  DPPC  H14Y  3113   0.090000   1.008000
 3114       CTL2    24  DPPC  C315  3114  -0.180000  12.011000
 3115       HAL2    24  DPPC  H15X  3115   0.090000   1.008000
 3116       HAL2    24  DPPC  H15Y  3116   0.090000   1.008000
 3117       CTL3    24  DPPC  C316  3117  -0.270000  12.011000
 3118       HAL3    24  DPPC  H16X  3118   0.090000   1.008000
 3119       HAL3    24  DPPC  H16Y  3119   0.090000   1.008000
 3120       HAL3    24  DPPC  H16Z  3120   0.090000   1.008000
 3121        NTL    25  DPPC     N  3121  -0.600000  14.007000
 3122       CTL5    25  DPPC   C13  3122  -0.350000  12.011000
 3123         HL    25  DPPC  H13A  3123   0.250000   1.008000
 3124         HL    25  DPPC  H13B  3124   0.250000   1.008000
 3125         HL    25  DPPC  H13C  3125   0.250000   1.008000
 3126       CTL5    25  DPPC   C14  3126  -0.350000  12.011000
 3127         HL    25  DPPC  H14A  3127   0.250000   1.008000
 3128         HL    25  DPPC  H14B  3128   0.250000   1.008000
 3129         HL    25  DPPC  H14C  3129   0.250000   1.008000
 3130       CTL5    25  DPPC   C15  3130  -0.350000  12.011000
 3131         HL    25  DPPC  H15A  3131   0.250000   1.008000
 3132         HL    25  DPPC  H15B  3132   0.250000   1.008000
 3133         HL    25  DPPC  H15C  3133   0.250000   1.008000
 3134       CTL2    25  DPPC   C12  3134  -0.100000  12.011000
 3135         HL    25  DPPC  H12A  3135   0.250000   1.008000
 3136         HL    25  DPPC  H12B  3136   0.250000   1.008000
 3137       CTL2    25  DPPC   C11  3137  -0.080000  12.011000
 3138       HAL2    25  DPPC  H11A  3138   0.090000   1.008000
 3139       HAL2    25  DPPC  H11B  3139   0.090000   1.008000
 3140         PL    25  DPPC     P  3140   1.500000  30.974001
 3141        O2L    25  DPPC   O13  3141  -0.780000  15.999400
 3142        O2L    25  DPPC   O14  3142  -0.780000  15.999400
 3143       OSLP    25  DPPC   O11  3143  -0.570000  15.999400
 3144       OSLP    25  DPPC   O12  3144  -0.570000  15.999400
 3145       CTL2    25  DPPC    C1  3145  -0.080000  12.011000
 3146       HAL2    25  DPPC    HA  3146   0.090000   1.008000
 3147       HAL2    25  DPPC    HB  3147   0.090000   1.008000
 3148       CTL1    25  DPPC    C2  3148   0.170000  12.011000
 3149       HAL1    25  DPPC    HS  3149   0.090000   1.008000
 3150        OSL    25  DPPC   O21  3150  -0.490000  15.999400
 3151         CL    25  DPPC   C21  3151   0.900000  12.011000
 3152        OBL    25  DPPC   O22  3152  -0.630000  15.999400
 3153       CTL2    25  DPPC   C22  3153  -0.220000  12.011000
 3154       HAL2    25  DPPC   H2R  3154   0.090000   1.008000
 3155       HAL2    25  DPPC   H2S  3155   0.090000   1.008000
 3156       CTL2    25  DPPC    C3  3156   0.080000  12.011000
 3157       HAL2    25  DPPC    HX  3157   0.090000   1.008000
 3158       HAL2    25  DPPC    HY  3158   0.090000   1.008000
 3159        OSL    25  DPPC   O31  3159  -0.490000  15.999400
 3160         CL    25  DPPC   C31  3160   0.900000  12.011000
 3161        OBL    25  DPPC   O32  3161  -0.630000  15.999400
 3162       CTL2    25  DPPC   C32  3162  -0.220000  12.011000
 3163       HAL2    25  DPPC   H2X  3163   0.090000   1.008000
 3164       HAL2    25  DPPC   H2Y  3164   0.090000   1.008000
 3165       CTL2    25  DPPC   C23  3165  -0.180000  12.011000
 3166       HAL2    25  DPPC   H3R  3166   0.090000   1.008000
 3167       HAL2    25  DPPC   H3S  3167   0.090000   1.008000
 3168       CTL2    25  DPPC   C24  3168  -0.180000  12.011000
 3169       HAL2    25  DPPC   H4R  3169   0.090000   1.008000
 3170       HAL2    25  DPPC   H4S  3170   0.090000   1.008000
 3171       CTL2    25  DPPC   C25  3171  -0.180000  12.011000
 3172       HAL2    25  DPPC   H5R  3172   0.090000   1.008000
 3173       HAL2    25  DPPC   H5S  3173   0.090000   1.008000
 3174       CTL2    25  DPPC   C26  3174  -0.180000  12.011000
 3175       HAL2    25  DPPC   H6R  3175   0.090000   1.008000
 3176       HAL2    25  DPPC   H6S  3176   0.090000   1.008000
 3177       CTL2    25  DPPC   C27  3177  -0.180000  12.011000
 3178       HAL2    25  DPPC   H7R  3178   0.090000   1.008000
 3179       HAL2    25  DPPC   H7S  3179   0.090000   1.008000
 3180       CTL2    25  DPPC   C28  3180  -0.180000  12.011000
 3181       HAL2    25  DPPC   H8R  3181   0.090000   1.008000
 3182       HAL2    25  DPPC   H8S  3182   0.090000   1.008000
 3183       CTL2    25  DPPC   C29  3183  -0.180000  12.011000
 3184       HAL2    25  DPPC   H9R  3184   0.090000   1.008000
 3185       HAL2    25  DPPC   H9S  3185   0.090000   1.008000
 3186       CTL2    25  DPPC  C210  3186  -0.180000  12.011000
 3187       HAL2    25  DPPC  H10R  3187   0.090000   1.008000
 3188       HAL2    25  DPPC  H10S  3188   0.090000   1.008000
 3189       CTL2    25  DPPC  C211  3189  -0.180000  12.011000
 3190       HAL2    25  DPPC  H11R  3190   0.090000   1.008000
 3191       HAL2    25  DPPC  H11S  3191   0.090000   1.008000
 3192       CTL2    25  DPPC  C212  3192  -0.180000  12.011000
 3193       HAL2    25  DPPC  H12R  3193   0.090000   1.008000
 3194       HAL2    25  DPPC  H12S  3194   0.090000   1.008000
 3195       CTL2    25  DPPC  C213  3195  -0.180000  12.011000
 3196       HAL2    25  DPPC  H13R  3196   0.090000   1.008000
 3197       HAL2    25  DPPC  H13S  3197   0.090000   1.008000
 3198       CTL2    25  DPPC  C214  3198  -0.180000  12.011000
 3199       HAL2    25  DPPC  H14R  3199   0.090000   1.008000
 3200       HAL2    25  DPPC  H14S  3200   0.090000   1.008000
 3201       CTL2    25  DPPC  C215  3201  -0.180000  12.011000
 3202       HAL2    25  DPPC  H15R  3202   0.090000   1.008000
 3203       HAL2    25  DPPC  H15S  3203   0.090000   1.008000
 3204       CTL3    25  DPPC  C216  3204  -0.270000  12.011000
 3205       HAL3    25  DPPC  H16R  3205   0.090000   1.008000
 3206       HAL3    25  DPPC  H16S  3206   0.090000   1.008000
 3207       HAL3    25  DPPC  H16T  3207   0.090000   1.008000
 3208       CTL2    25  DPPC   C33  3208  -0.180000  12.011000
 3209       HAL2    25  DPPC   H3X  3209   0.090000   1.008000
 3210       HAL2    25  DPPC   H3Y  3210   0.090000   1.008000
 3211       CTL2    25  DPPC   C34  3211  -0.180000  12.011000
 3212       HAL2    25  DPPC   H4X  3212   0.090000   1.008000
 3213       HAL2    25  DPPC   H4Y  3213   0.090000   1.008000
 3214       CTL2    25  DPPC   C35  3214  -0.180000  12.011000
 3215       HAL2    25  DPPC   H5X  3215   0.090000   1.008000
 3216       HAL2    25  DPPC   H5Y  3216   0.090000   1.008000
 3217       CTL2    25  DPPC   C36  3217  -0.180000  12.011000
 3218       HAL2    25  DPPC   H6X  3218   0.090000   1.008000
 3219       HAL2    25  DPPC   H6Y  3219   0.090000   1.008000
 3220       CTL2    25  DPPC   C37  3220  -0.180000  12.011000
 3221       HAL2    25  DPPC   H7X  3221   0.090000   1.008000
 3222       HAL2    25  DPPC   H7Y  3222   0.090000   1.008000
 3223       CTL2    25  DPPC   C38  3223  -0.180000  12.011000
 3224       HAL2    25  DPPC   H8X  3224   0.090000   1.008000
 3225       HAL2    25  DPPC   H8Y  3225   0.090000   1.008000
 3226       CTL2    25  DPPC   C39  3226  -0.180000  12.011000
 3227       HAL2    25  DPPC   H9X  3227   0.090000   1.008000
 3228       HAL2    25  DPPC   H9Y  3228   0.090000   1.008000
 3229       CTL2    25  DPPC  C310  3229  -0.180000  12.011000
 3230       HAL2    25  DPPC  H10X  3230   0.090000   1.008000
 3231       HAL2    25  DPPC  H10Y  3231   0.090000   1.008000
 3232       CTL2    25  DPPC  C311  3232  -0.180000  12.011000
 3233       HAL2    25  DPPC  H11X  3233   0.090000   1.008000
 3234       HAL2    25  DPPC  H11Y  3234   0.090000   1.008000
 3235       CTL2    25  DPPC  C312  3235  -0.180000  12.011000
 3236       HAL2    25  DPPC  H12X  3236   0.090000   1.008000
 3237       HAL2    25  DPPC  H12Y  3237   0.090000   1.008000
 3238       CTL2    25  DPPC  C313  3238  -0.180000  12.011000
 3239       HAL2    25  DPPC  H13X  3239   0.090000   1.008000
 3240       HAL2    25  DPPC  H13Y  3240   0.090000   1.008000
 3241       CTL2    25  DPPC  C314  3241  -0.180000  12.011000
 3242       HAL2    25  DPPC  H14X  3242   0.090000   1.008000
 3243       HAL2    25  DPPC  H14Y  3243   0.090000   1.008000
 3244       CTL2    25  DPPC  C315  3244  -0.180000  12.011000
 3245       HAL2    25  DPPC  H15X  3245   0.090000   1.008000
 3246       HAL2    25  DPPC  H15Y  3246   0.090000   1.008000
 3247       CTL3    25  DPPC  C316  3247  -0.270000  12.011000
 3248       HAL3    25  DPPC  H16X  3248   0.090000   1.008000
 3249       HAL3    25  DPPC  H16Y  3249   0.090000   1.008000
 3250       HAL3    25  DPPC  H16Z  3250   0.090000   1.008000
 3251        NTL    26  DPPC     N  3251  -0.600000  14.007000
 3252       CTL5    26  DPPC   C13  3252  -0.350000  12.011000
 3253         HL    26  DPPC  H13A  3253   0.250000   1.008000
 3254         HL    26  DPPC  H13B  3254   0.250000   1.008000
 3255         HL    26  DPPC  H13C  3255   0.250000   1.008000
 3256       CTL5    26  DPPC   C14  3256  -0.350000  12.011000
 3257         HL    26  DPPC  H14A  3257   0.250000   1.008000
 3258         HL    26  DPPC  H14B  3258   0.250000   1.008000
 3259         HL    26  DPPC  H14C  3259   0.250000   1.008000
 3260       CTL5    26  DPPC   C15  3260  -0.350000  12.011000
 3261         HL    26  DPPC  H15A  3261   0.250000   1.008000
 3262         HL    26  DPPC  H15B  3262   0.250000   1.008000
 3263         HL    26  DPPC  H15C  3263   0.250000   1.008000
 3264       CTL2    26  DPPC   C12  3264  -0.100000  12.011000
 3265         HL    26  DPPC  H12A  3265   0.250000   1.008000
 3266         HL    26  DPPC  H12B  3266   0.250000   1.008000
 3267       CTL2    26  DPPC   C11  3267  -0.080000  12.011000
 3268       HAL2    26  DPPC  H11A  3268   0.090000   1.008000
 3269       HAL2    26  DPPC  H11B  3269   0.090000   1.008000
 3270         PL    26  DPPC     P  3270   1.500000  30.974001
 3271        O2L    26  DPPC   O13  3271  -0.780000  15.999400
 3272        O2L    26  DPPC   O14  3272  -0.780000  15.999400
 3273       OSLP    26  DPPC   O11  3273  -0.570000  15.999400
 3274       OSLP    26  DPPC   O12  3274  -0.570000  15.999400
 3275       CTL2    26  DPPC    C1  3275  -0.080000  12.011000
 3276       HAL2    26  DPPC    HA  3276   0.090000   1.008000
 3277       HAL2    26  DPPC    HB  3277   0.090000   1.008000
 3278       CTL1    26  DPPC    C2  3278   0.170000  12.011000
 3279       HAL1    26  DPPC    HS  3279   0.090000   1.008000
 3280        OSL    26  DPPC   O21  3280  -0.490000  15.999400
 3281         CL    26  DPPC   C21  3281   0.900000  12.011000
 3282        OBL    26  DPPC   O22  3282  -0.630000  15.999400
 3283       CTL2    26  DPPC   C22  3283  -0.220000  12.011000
 3284       HAL2    26  DPPC   H2R  3284   0.090000   1.008000
 3285       HAL2    26  DPPC   H2S  3285   0.090000   1.008000
 3286       CTL2    26  DPPC    C3  3286   0.080000  12.011000
 3287       HAL2    26  DPPC    HX  3287   0.090000   1.008000
 3288       HAL2    26  DPPC    HY  3288   0.090000   1.008000
 3289        OSL    26  DPPC   O31  3289  -0.490000  15.999400
 3290         CL    26  DPPC   C31  3290   0.900000  12.011000
 3291        OBL    26  DPPC   O32  3291  -0.630000  15.999400
 3292       CTL2    26  DPPC   C32  3292  -0.220000  12.011000
 3293       HAL2    26  DPPC   H2X  3293   0.090000   1.008000
 3294       HAL2    26  DPPC   H2Y  3294   0.090000   1.008000
 3295       CTL2    26  DPPC   C23  3295  -0.180000  12.011000
 3296       HAL2    26  DPPC   H3R  3296   0.090000   1.008000
 3297       HAL2    26  DPPC   H3S  3297   0.090000   1.008000
 3298       CTL2    26  DPPC   C24  3298  -0.180000  12.011000
 3299       HAL2    26  DPPC   H4R  3299   0.090000   1.008000
 3300       HAL2    26  DPPC   H4S  3300   0.090000   1.008000
 3301       CTL2    26  DPPC   C25  3301  -0.180000  12.011000
 3302       HAL2    26  DPPC   H5R  3302   0.090000   1.008000
 3303       HAL2    26  DPPC   H5S  3303   0.090000   1.008000
 3304       CTL2    26  DPPC   C26  3304  -0.180000  12.011000
 3305       HAL2    26  DPPC   H6R  3305   0.090000   1.008000
 3306       HAL2    26  DPPC   H6S  3306   0.090000   1.008000
 3307       CTL2    26  DPPC   C27  3307  -0.180000  12.011000
 3308       HAL2    26  DPPC   H7R  3308   0.090000   1.008000
 3309       HAL2    26  DPPC   H7S  3309   0.090000   1.008000
 3310       CTL2    26  DPPC   C28  3310  -0.180000  12.011000
 3311       HAL2    26  DPPC   H8R  3311   0.090000   1.008000
 3312       HAL2    26  DPPC   H8S  3312   0.090000   1.008000
 3313       CTL2    26  DPPC   C29  3313  -0.180000  12.011000
 3314       HAL2    26  DPPC   H9R  3314   0.090000   1.008000
 3315       HAL2    26  DPPC   H9S  3315   0.090000   1.008000
 3316       CTL2    26  DPPC  C210  3316  -0.180000  12.011000
 3317       HAL2    26  DPPC  H10R  3317   0.090000   1.008000
 3318       HAL2    26  DPPC  H10S  3318   0.090000   1.008000
 3319       CTL2    26  DPPC  C211  3319  -0.180000  12.011000
 3320       HAL2    26  DPPC  H11R  3320   0.090000   1.008000
 3321       HAL2    26  DPPC  H11S  3321   0.090000   1.008000
 3322       CTL2    26  DPPC  C212  3322  -0.180000  12.011000
 3323       HAL2    26  DPPC  H12R  3323   0.090000   1.008000
 3324       HAL2    26  DPPC  H12S  3324   0.090000   1.008000
 3325       CTL2    26  DPPC  C213  3325  -0.180000  12.011000
 3326       HAL2    26  DPPC  H13R  3326   0.090000   1.008000
 3327       HAL2    26  DPPC  H13S  3327   0.090000   1.008000
 3328       CTL2    26  DPPC  C214  3328  -0.180000  12.011000
 3329       HAL2    26  DPPC  H14R  3329   0.090000   1.008000
 3330       HAL2    26  DPPC  H14S  3330   0.090000   1.008000
 3331       CTL2    26  DPPC  C215  3331  -0.180000  12.011000
 3332       HAL2    26  DPPC  H15R  3332   0.090000   1.008000
 3333       HAL2    26  DPPC  H15S  3333   0.090000   1.008000
 3334       CTL3    26  DPPC  C216  3334  -0.270000  12.011000
 3335       HAL3    26  DPPC  H16R  3335   0.090000   1.008000
 3336       HAL3    26  DPPC  H16S  3336   0.090000   1.008000
 3337       HAL3    26  DPPC  H16T  3337   0.090000   1.008000
 3338       CTL2    26  DPPC   C33  3338  -0.180000  12.011000
 3339       HAL2    26  DPPC   H3X  3339   0.090000   1.008000
 3340       HAL2    26  DPPC   H3Y  3340   0.090000   1.008000
 3341       CTL2    26  DPPC   C34  3341  -0.180000  12.011000
 3342       HAL2    26  DPPC   H4X  3342   0.090000   1.008000
 3343       HAL2    26  DPPC   H4Y  3343   0.090000   1.008000
 3344       CTL2    26  DPPC   C35  3344  -0.180000  12.011000
 3345       HAL2    26  DPPC   H5X  3345   0.090000   1.008000
 3346       HAL2    26  DPPC   H5Y  3346   0.090000   1.008000
 3347       CTL2    26  DPPC   C36  3347  -0.180000  12.011000
 3348       HAL2    26  DPPC   H6X  3348   0.090000   1.008000
 3349       HAL2    26  DPPC   H6Y  3349   0.090000   1.008000
 3350       CTL2    26  DPPC   C37  3350  -0.180000  12.011000
 3351       HAL2    26  DPPC   H7X  3351   0.090000   1.008000
 3352       HAL2    26  DPPC   H7Y  3352   0.090000   1.008000
 3353       CTL2    26  DPPC   C38  3353  -0.180000  12.011000
 3354       HAL2    26  DPPC   H8X  3354   0.090000   1.008000
 3355       HAL2    26  DPPC   H8Y  3355   0.090000   1.008000
 3356       CTL2    26  DPPC   C39  3356  -0.180000  12.011000
 3357       HAL2    26  DPPC   H9X  3357   0.090000   1.008000
 3358       HAL2    26  DPPC   H9Y  3358   0.090000   1.008000
 3359       CTL2    26  DPPC  C310  3359  -0.180000  12.011000
 3360       HAL2    26  DPPC  H10X  3360   0.090000   1.008000
 3361       HAL2    26  DPPC  H10Y  3361   0.090000   1.008000
 3362       CTL2    26  DPPC  C311  3362  -0.180000  12.011000
 3363       HAL2    26  DPPC  H11X  3363   0.090000   1.008000
 3364       HAL2    26  DPPC  H11Y  3364   0.090000   1.008000
 3365       CTL2    26  DPPC  C312  3365  -0.180000  12.011000
 3366       HAL2    26  DPPC  H12X  3366   0.090000   1.008000
 3367       HAL2    26  DPPC  H12Y  3367   0.090000   1.008000
 3368       CTL2    26  DPPC  C313  3368  -0.180000  12.011000
 3369       HAL2    26  DPPC  H13X  3369   0.090000   1.008000
 3370       HAL2    26  DPPC  H13Y  3370   0.090000   1.008000
 3371       CTL2    26  DPPC  C314  3371  -0.180000  12.011000
 3372       HAL2    26  DPPC  H14X  3372   0.090000   1.008000
 3373       HAL2    26  DPPC  H14Y  3373   0.090000   1.008000
 3374       CTL2    26  DPPC  C315  3374  -0.180000  12.011000
 3375       HAL2    26  DPPC  H15X  3375   0.090000   1.008000
 3376       HAL2    26  DPPC  H15Y  3376   0.090000   1.008000
 3377       CTL3    26  DPPC  C316  3377  -0.270000  12.011000
 3378       HAL3    26  DPPC  H16X  3378   0.090000   1.008000
 3379       HAL3    26  DPPC  H16Y  3379   0.090000   1.008000
 3380       HAL3    26  DPPC  H16Z  3380   0.090000   1.008000
 3381        NTL    27  DPPC     N  3381  -0.600000  14.007000
 3382       CTL5    27  DPPC   C13  3382  -0.350000  12.011000
 3383         HL    27  DPPC  H13A  3383   0.250000   1.008000
 3384         HL    27  DPPC  H13B  3384   0.250000   1.008000
 3385         HL    27  DPPC  H13C  3385   0.250000   1.008000
 3386       CTL5    27  DPPC   C14  3386  -0.350000  12.011000
 3387         HL    27  DPPC  H14A  3387   0.250000   1.008000
 3388         HL    27  DPPC  H14B  3388   0.250000   1.008000
 3389         HL    27  DPPC  H14C  3389   0.250000   1.008000
 3390       CTL5    27  DPPC   C15  3390  -0.350000  12.011000
 3391         HL    27  DPPC  H15A  3391   0.250000   1.008000
 3392         HL    27  DPPC  H15B  3392   0.250000   1.008000
 3393         HL    27  DPPC  H15C  3393   0.250000   1.008000
 3394       CTL2    27  DPPC   C12  3394  -0.100000  12.011000
 3395         HL    27  DPPC  H12A  3395   0.250000   1.008000
 3396         HL    27  DPPC  H12B  3396   0.250000   1.008000
 3397       CTL2    27  DPPC   C11  3397  -0.080000  12.011000
 3398       HAL2    27  DPPC  H11A  3398   0.090000   1.008000
 3399       HAL2    27  DPPC  H11B  3399   0.090000   1.008000
 3400         PL    27  DPPC     P  3400   1.500000  30.974001
 3401        O2L    27  DPPC   O13  3401  -0.780000  15.999400
 3402        O2L    27  DPPC   O14  3402  -0.780000  15.999400
 3403       OSLP    27  DPPC   O11  3403  -0.570000  15.999400
 3404       OSLP    27  DPPC   O12  3404  -0.570000  15.999400
 3405       CTL2    27  DPPC    C1  3405  -0.080000  12.011000
 3406       HAL2    27  DPPC    HA  3406   0.090000   1.008000
 3407       HAL2    27  DPPC    HB  3407   0.090000   1.008000
 3408       CTL1    27  DPPC    C2  3408   0.170000  12.011000
 3409       HAL1    27  DPPC    HS  3409   0.090000   1.008000
 3410        OSL    27  DPPC   O21  3410  -0.490000  15.999400
 3411         CL    27  DPPC   C21  3411   0.900000  12.011000
 3412        OBL    27  DPPC   O22  3412  -0.630000  15.999400
 3413       CTL2    27  DPPC   C22  3413  -0.220000  12.011000
 3414       HAL2    27  DPPC   H2R  3414   0.090000   1.008000
 3415       HAL2    27  DPPC   H2S  3415   0.090000   1.008000
 3416       CTL2    27  DPPC    C3  3416   0.080000  12.011000
 3417       HAL2    27  DPPC    HX  3417   0.090000   1.008000
 3418       HAL2    27  DPPC    HY  3418   0.090000   1.008000
 3419        OSL    27  DPPC   O31  3419  -0.490000  15.999400
 3420         CL    27  DPPC   C31  3420   0.900000  12.011000
 3421        OBL    27  DPPC   O32  3421  -0.630000  15.999400
 3422       CTL2    27  DPPC   C32  3422  -0.220000  12.011000
 3423       HAL2    27  DPPC   H2X  3423   0.090000   1.008000
 3424       HAL2    27  DPPC   H2Y  3424   0.090000   1.008000
 3425       CTL2    27  DPPC   C23  3425  -0.180000  12.011000
 3426       HAL2    27  DPPC   H3R  3426   0.090000   1.008000
 3427       HAL2    27  DPPC   H3S  3427   0.090000   1.008000
 3428       CTL2    27  DPPC   C24  3428  -0.180000  12.011000
 3429       HAL2    27  DPPC   H4R  3429   0.090000   1.008000
 3430       HAL2    27  DPPC   H4S  3430   0.090000   1.008000
 3431       CTL2    27  DPPC   C25  3431  -0.180000  12.011000
 3432       HAL2    27  DPPC   H5R  3432   0.090000   1.008000
 3433       HAL2    27  DPPC   H5S  3433   0.090000   1.008000
 3434       CTL2    27  DPPC   C26  3434  -0.180000  12.011000
 3435       HAL2    27  DPPC   H6R  3435   0.090000   1.008000
 3436       HAL2    27  DPPC   H6S  3436   0.090000   1.008000
 3437       CTL2    27  DPPC   C27  3437  -0.180000  12.011000
 3438       HAL2    27  DPPC   H7R  3438   0.090000   1.008000
 3439       HAL2    27  DPPC   H7S  3439   0.090000   1.008000
 3440       CTL2    27  DPPC   C28  3440  -0.180000  12.011000
 3441       HAL2    27  DPPC   H8R  3441   0.090000   1.008000
 3442       HAL2    27  DPPC   H8S  3442   0.090000   1.008000
 3443       CTL2    27  DPPC   C29  3443  -0.180000  12.011000
 3444       HAL2    27  DPPC   H9R  3444   0.090000   1.008000
 3445       HAL2    27  DPPC   H9S  3445   0.090000   1.008000
 3446       CTL2    27  DPPC  C210  3446  -0.180000  12.011000
 3447       HAL2    27  DPPC  H10R  3447   0.090000   1.008000
 3448       HAL2    27  DPPC  H10S  3448   0.090000   1.008000
 3449       CTL2    27  DPPC  C211  3449  -0.180000  12.011000
 3450       HAL2    27  DPPC  H11R  3450   0.090000   1.008000
 3451       HAL2    27  DPPC  H11S  3451   0.090000   1.008000
 3452       CTL2    27  DPPC  C212  3452  -0.180000  12.011000
 3453       HAL2    27  DPPC  H12R  3453   0.090000   1.008000
 3454       HAL2    27  DPPC  H12S  3454   0.090000   1.008000
 3455       CTL2    27  DPPC  C213  3455  -0.180000  12.011000
 3456       HAL2    27  DPPC  H13R  3456   0.090000   1.008000
 3457       HAL2    27  DPPC  H13S  3457   0.090000   1.008000
 3458       CTL2    27  DPPC  C214  3458  -0.180000  12.011000
 3459       HAL2    27  DPPC  H14R  3459   0.090000   1.008000
 3460       HAL2    27  DPPC  H14S  3460   0.090000   1.008000
 3461       CTL2    27  DPPC  C215  3461  -0.180000  12.011000
 3462       HAL2    27  DPPC  H15R  3462   0.090000   1.008000
 3463       HAL2    27  DPPC  H15S  3463   0.090000   1.008000
 3464       CTL3    27  DPPC  C216  3464  -0.270000  12.011000
 3465       HAL3    27  DPPC  H16R  3465   0.090000   1.008000
 3466       HAL3    27  DPPC  H16S  3466   0.090000   1.008000
 3467       HAL3    27  DPPC  H16T  3467   0.090000   1.008000
 3468       CTL2    27  DPPC   C33  3468  -0.180000  12.011000
 3469       HAL2    27  DPPC   H3X  3469   0.090000   1.008000
 3470       HAL2    27  DPPC   H3Y  3470   0.090000   1.008000
 3471       CTL2    27  DPPC   C34  3471  -0.180000  12.011000
 3472       HAL2    27  DPPC   H4X  3472   0.090000   1.008000
 3473       HAL2    27  DPPC   H4Y  3473   0.090000   1.008000
 3474       CTL2    27  DPPC   C35  3474  -0.180000  12.011000
 3475       HAL2    27  DPPC   H5X  3475   0.090000   1.008000
 3476       HAL2    27  DPPC   H5Y  3476   0.090000   1.008000
 3477       CTL2    27  DPPC   C36  3477  -0.180000  12.011000
 3478       HAL2    27  DPPC   H6X  3478   0.090000   1.008000
 3479       HAL2    27  DPPC   H6Y  3479   0.090000   1.008000
 3480       CTL2    27  DPPC   C37  3480  -0.180000  12.011000
 3481       HAL2    27  DPPC   H7X  3481   0.090000   1.008000
 3482       HAL2    27  DPPC   H7Y  3482   0.090000   1.008000
 3483       CTL2    27  DPPC   C38  3483  -0.180000  12.011000
 3484       HAL2    27  DPPC   H8X  3484   0.090000   1.008000
 3485       HAL2    27  DPPC   H8Y  3485   0.090000   1.008000
 3486       CTL2    27  DPPC   C39  3486  -0.180000  12.011000
 3487       HAL2    27  DPPC   H9X  3487   0.090000   1.008000
 3488       HAL2    27  DPPC   H9Y  3488   0.090000   1.008000
 3489       CTL2    27  DPPC  C310  3489  -0.180000  12.011000
 3490       HAL2    27  DPPC  H10X  3490   0.090000   1.008000
 3491       HAL2    27  DPPC  H10Y  3491   0.090000   1.008000
 3492       CTL2    27  DPPC  C311  3492  -0.180000  12.011000
 3493       HAL2    27  DPPC  H11X  3493   0.090000   1.008000
 3494       HAL2    27  DPPC  H11Y  3494   0.090000   1.008000
 3495       CTL2    27  DPPC  C312  3495  -0.180000  12.011000
 3496       HAL2    27  DPPC  H12X  3496   0.090000   1.008000
 3497       HAL2    27  DPPC  H12Y  3497   0.090000   1.008000
 3498       CTL2    27  DPPC  C313  3498  -0.180000  12.011000
 3499       HAL2    27  DPPC  H13X  3499   0.090000   1.008000
 3500       HAL2    27  DPPC  H13Y  3500   0.090000   1.008000
 3501       CTL2    27  DPPC  C314  3501  -0.180000  12.011000
 3502       HAL2    27  DPPC  H14X  3502   0.090000   1.008000
 3503       HAL2    27  DPPC  H14Y  3503   0.090000   1.008000
 3504       CTL2    27  DPPC  C315  3504  -0.180000  12.011000
 3505       HAL2    27  DPPC  H15X  3505   0.090000   1.008000
 3506       HAL2    27  DPPC  H15Y  3506   0.090000   1.008000
 3507       CTL3    27  DPPC  C316  3507  -0.270000  12.011000
 3508       HAL3    27  DPPC  H16X  3508   0.090000   1.008000
 3509       HAL3    27  DPPC  H16Y  3509   0.090000   1.008000
 3510       HAL3    27  DPPC  H16Z  3510   0.090000   1.008000
 3511        NTL    28  DPPC     N  3511  -0.600000  14.007000
 3512       CTL5    28  DPPC   C13  3512  -0.350000  12.011000
 3513         HL    28  DPPC  H13A  3513   0.250000   1.008000
 3514         HL    28  DPPC  H13B  3514   0.250000   1.008000
 3515         HL    28  DPPC  H13C  3515   0.250000   1.008000
 3516       CTL5    28  DPPC   C14  3516  -0.350000  12.011000
 3517         HL    28  DPPC  H14A  3517   0.250000   1.008000
 3518         HL    28  DPPC  H14B  3518   0.250000   1.008000
 3519         HL    28  DPPC  H14C  3519   0.250000   1.008000
 3520       CTL5    28  DPPC   C15  3520  -0.350000  12.011000
 3521         HL    28  DPPC  H15A  3521   0.250000   1.008000
 3522         HL    28  DPPC  H15B  3522   0.250000   1.008000
 3523         HL    28  DPPC  H15C  3523   0.250000   1.008000
 3524       CTL2    28  DPPC   C12  3524  -0.100000  12.011000
 3525         HL    28  DPPC  H12A  3525   0.250000   1.008000
 3526         HL    28  DPPC  H12B  3526   0.250000   1.008000
 3527       CTL2    28  DPPC   C11  3527  -0.080000  12.011000
 3528       HAL2    28  DPPC  H11A  3528   0.090000   1.008000
 3529       HAL2    28  DPPC  H11B  3529   0.090000   1.008000
 3530         PL    28  DPPC     P  3530   1.500000  30.974001
 3531        O2L    28  DPPC   O13  3531  -0.780000  15.999400
 3532        O2L    28  DPPC   O14  3532  -0.780000  15.999400
 3533       OSLP    28  DPPC   O11  3533  -0.570000  15.999400
 3534       OSLP    28  DPPC   O12  3534  -0.570000  15.999400
 3535       CTL2    28  DPPC    C1  3535  -0.080000  12.011000
 3536       HAL2    28  DPPC    HA  3536   0.090000   1.008000
 3537       HAL2    28  DPPC    HB  3537   0.090000   1.008000
 3538       CTL1    28  DPPC    C2  3538   0.170000  12.011000
 3539       HAL1    28  DPPC    HS  3539   0.090000   1.008000
 3540        OSL    28  DPPC   O21  3540  -0.490000  15.999400
 3541         CL    28  DPPC   C21  3541   0.900000  12.011000
 3542        OBL    28  DPPC   O22  3542  -0.630000  15.999400
 3543       CTL2    28  DPPC   C22  3543  -0.220000  12.011000
 3544       HAL2    28  DPPC   H2R  3544   0.090000   1.008000
 3545       HAL2    28  DPPC   H2S  3545   0.090000   1.008000
 3546       CTL2    28  DPPC    C3  3546   0.080000  12.011000
 3547       HAL2    28  DPPC    HX  3547   0.090000   1.008000
 3548       HAL2    28  DPPC    HY  3548   0.090000   1.008000
 3549        OSL    28  DPPC   O31  3549  -0.490000  15.999400
 3550         CL    28  DPPC   C31  3550   0.900000  12.011000
 3551        OBL    28  DPPC   O32  3551  -0.630000  15.999400
 3552       CTL2    28  DPPC   C32  3552  -0.220000  12.011000
 3553       HAL2    28  DPPC   H2X  3553   0.090000   1.008000
 3554       HAL2    28  DPPC   H2Y  3554   0.090000   1.008000
 3555       CTL2    28  DPPC   C23  3555  -0.180000  12.011000
 3556       HAL2    28  DPPC   H3R  3556   0.090000   1.008000
 3557       HAL2    28  DPPC   H3S  3557   0.090000   1.008000
 3558       CTL2    28  DPPC   C24  3558  -0.180000  12.011000
 3559       HAL2    28  DPPC   H4R  3559   0.090000   1.008000
 3560       HAL2    28  DPPC   H4S  3560   0.090000   1.008000
 3561       CTL2    28  DPPC   C25  3561  -0.180000  12.011000
 3562       HAL2    28  DPPC   H5R  3562   0.090000   1.008000
 3563       HAL2    28  DPPC   H5S  3563   0.090000   1.008000
 3564       CTL2    28  DPPC   C26  3564  -0.180000  12.011000
 3565       HAL2    28  DPPC   H6R  3565   0.090000   1.008000
 3566       HAL2    28  DPPC   H6S  3566   0.090000   1.008000
 3567       CTL2    28  DPPC   C27  3567  -0.180000  12.011000
 3568       HAL2    28  DPPC   H7R  3568   0.090000   1.008000
 3569       HAL2    28  DPPC   H7S  3569   0.090000   1.008000
 3570       CTL2    28  DPPC   C28  3570  -0.180000  12.011000
 3571       HAL2    28  DPPC   H8R  3571   0.090000   1.008000
 3572       HAL2    28  DPPC   H8S  3572   0.090000   1.008000
 3573       CTL2    28  DPPC   C29  3573  -0.180000  12.011000
 3574       HAL2    28  DPPC   H9R  3574   0.090000   1.008000
 3575       HAL2    28  DPPC   H9S  3575   0.090000   1.008000
 3576       CTL2    28  DPPC  C210  3576  -0.180000  12.011000
 3577       HAL2    28  DPPC  H10R  3577   0.090000   1.008000
 3578       HAL2    28  DPPC  H10S  3578   0.090000   1.008000
 3579       CTL2    28  DPPC  C211  3579  -0.180000  12.011000
 3580       HAL2    28  DPPC  H11R  3580   0.090000   1.008000
 3581       HAL2    28  DPPC  H11S  3581   0.090000   1.008000
 3582       CTL2    28  DPPC  C212  3582  -0.180000  12.011000
 3583       HAL2    28  DPPC  H12R  3583   0.090000   1.008000
 3584       HAL2    28  DPPC  H12S  3584   0.090000   1.008000
 3585       CTL2    28  DPPC  C213  3585  -0.180000  12.011000
 3586       HAL2    28  DPPC  H13R  3586   0.090000   1.008000
 3587       HAL2    28  DPPC  H13S  3587   0.090000   1.008000
 3588       CTL2    28  DPPC  C214  3588  -0.180000  12.011000
 3589       HAL2    28  DPPC  H14R  3589   0.090000   1.008000
 3590       HAL2    28  DPPC  H14S  3590   0.090000   1.008000
 3591       CTL2    28  DPPC  C215  3591  -0.180000  12.011000
 3592       HAL2    28  DPPC  H15R  3592   0.090000   1.008000
 3593       HAL2    28  DPPC  H15S  3593   0.090000   1.008000
 3594       CTL3    28  DPPC  C216  3594  -0.270000  12.011000
 3595       HAL3    28  DPPC  H16R  3595   0.090000   1.008000
 3596       HAL3    28  DPPC  H16S  3596   0.090000   1.008000
 3597       HAL3    28  DPPC  H16T  3597   0.090000   1.008000
 3598       CTL2    28  DPPC   C33  3598  -0.180000  12.011000
 3599       HAL2    28  DPPC   H3X  3599   0.090000   1.008000
 3600       HAL2    28  DPPC   H3Y  3600   0.090000   1.008000
 3601       CTL2    28  DPPC   C34  3601  -0.180000  12.011000
 3602       HAL2    28  DPPC   H4X  3602   0.090000   1.008000
 3603       HAL2    28  DPPC   H4Y  3603   0.090000   1.008000
 3604       CTL2    28  DPPC   C35  3604  -0.180000  12.011000
 3605       HAL2    28  DPPC   H5X  3605   0.090000   1.008000
 3606       HAL2    28  DPPC   H5Y  3606   0.090000   1.008000
 3607       CTL2    28  DPPC   C36  3607  -0.180000  12.011000
 3608       HAL2    28  DPPC   H6X  3608   0.090000   1.008000
 3609       HAL2    28  DPPC   H6Y  3609   0.090000   1.008000
 3610       CTL2    28  DPPC   C37  3610  -0.180000  12.011000
 3611       HAL2    28  DPPC   H7X  3611   0.090000   1.008000
 3612       HAL2    28  DPPC   H7Y  3612   0.090000   1.008000
 3613       CTL2    28  DPPC   C38  3613  -0.180000  12.011000
 3614       HAL2    28  DPPC   H8X  3614   0.090000   1.008000
 3615       HAL2    28  DPPC   H8Y  3615   0.090000   1.008000
 3616       CTL2    28  DPPC   C39  3616  -0.180000  12.011000
 3617       HAL2    28  DPPC   H9X  3617   0.090000   1.008000
 3618       HAL2    28  DPPC   H9Y  3618   0.090000   1.008000
 3619       CTL2    28  DPPC  C310  3619  -0.180000  12.011000
 3620       HAL2    28  DPPC  H10X  3620   0.090000   1.008000
 3621       HAL2    28  DPPC  H10Y  3621   0.090000   1.008000
 3622       CTL2    28  DPPC  C311  3622  -0.180000  12.011000
 3623       HAL2    28  DPPC  H11X  3623   0.090000   1.008000
 3624       HAL2    28  DPPC  H11Y  3624   0.090000   1.008000
 3625       CTL2    28  DPPC  C312  3625  -0.180000  12.011000
 3626       HAL2    28  DPPC  H12X  3626   0.090000   1.008000
 3627       HAL2    28  DPPC  H12Y  3627   0.090000   1.008000
 3628       CTL2    28  DPPC  C313  3628  -0.180000  12.011000
 3629       HAL2    28  DPPC  H13X  3629   0.090000   1.008000
 3630       HAL2    28  DPPC  H13Y  3630   0.090000   1.008000
 3631       CTL2    28  DPPC  C314  3631  -0.180000  12.011000
 3632       HAL2    28  DPPC  H14X  3632   0.090000   1.008000
 3633       HAL2    28  DPPC  H14Y  3633   0.090000   1.008000
 3634       CTL2    28  DPPC  C315  3634  -0.180000  12.011000
 3635       HAL2    28  DPPC  H15X  3635   0.090000   1.008000
 3636       HAL2    28  DPPC  H15Y  3636   0.090000   1.008000
 3637       CTL3    28  DPPC  C316  3637  -0.270000  12.011000
 3638       HAL3    28  DPPC  H16X  3638   0.090000   1.008000
 3639       HAL3    28  DPPC  H16Y  3639   0.090000   1.008000
 3640       HAL3    28  DPPC  H16Z  3640   0.090000   1.008000
 3641        NTL    29  DPPC     N  3641  -0.600000  14.007000
 3642       CTL5    29  DPPC   C13  3642  -0.350000  12.011000
 3643         HL    29  DPPC  H13A  3643   0.250000   1.008000
 3644         HL    29  DPPC  H13B  3644   0.250000   1.008000
 3645         HL    29  DPPC  H13C  3645   0.250000   1.008000
 3646       CTL5    29  DPPC   C14  3646  -0.350000  12.011000
 3647         HL    29  DPPC  H14A  3647   0.250000   1.008000
 3648         HL    29  DPPC  H14B  3648   0.250000   1.008000
 3649         HL    29  DPPC  H14C  3649   0.250000   1.008000
 3650       CTL5    29  DPPC   C15  3650  -0.350000  12.011000
 3651         HL    29  DPPC  H15A  3651   0.250000   1.008000
 3652         HL    29  DPPC  H15B  3652   0.250000   1.008000
 3653         HL    29  DPPC  H15C  3653   0.250000   1.008000
 3654       CTL2    29  DPPC   C12  3654  -0.100000  12.011000
 3655         HL    29  DPPC  H12A  3655   0.250000   1.008000
 3656         HL    29  DPPC  H12B  3656   0.250000   1.008000
 3657       CTL2    29  DPPC   C11  3657  -0.080000  12.011000
 3658       HAL2    29  DPPC  H11A  3658   0.090000   1.008000
 3659       HAL2    29  DPPC  H11B  3659   0.090000   1.008000
 3660         PL    29  DPPC     P  3660   1.500000  30.974001
 3661        O2L    29  DPPC   O13  3661  -0.780000  15.999400
 3662        O2L    29  DPPC   O14  3662  -0.780000  15.999400
 3663       OSLP    29  DPPC   O11  3663  -0.570000  15.999400
 3664       OSLP    29  DPPC   O12  3664  -0.570000  15.999400
 3665       CTL2    29  DPPC    C1  3665  -0.080000  12.011000
 3666       HAL2    29  DPPC    HA  3666   0.090000   1.008000
 3667       HAL2    29  DPPC    HB  3667   0.090000   1.008000
 3668       CTL1    29  DPPC    C2  3668   0.170000  12.011000
 3669       HAL1    29  DPPC    HS  3669   0.090000   1.008000
 3670        OSL    29  DPPC   O21  3670  -0.490000  15.999400
 3671         CL    29  DPPC   C21  3671   0.900000  12.011000
 3672        OBL    29  DPPC   O22  3672  -0.630000  15.999400
 3673       CTL2    29  DPPC   C22  3673  -0.220000  12.011000
 3674       HAL2    29  DPPC   H2R  3674   0.090000   1.008000
 3675       HAL2    29  DPPC   H2S  3675   0.090000   1.008000
 3676       CTL2    29  DPPC    C3  3676   0.080000  12.011000
 3677       HAL2    29  DPPC    HX  3677   0.090000   1.008000
 3678       HAL2    29  DPPC    HY  3678   0.090000   1.008000
 3679        OSL    29  DPPC   O31  3679  -0.490000  15.999400
 3680         CL    29  DPPC   C31  3680   0.900000  12.011000
 3681        OBL    29  DPPC   O32  3681  -0.630000  15.999400
 3682       CTL2    29  DPPC   C32  3682  -0.220000  12.011000
 3683       HAL2    29  DPPC   H2X  3683   0.090000   1.008000
 3684       HAL2    29  DPPC   H2Y  3684   0.090000   1.008000
 3685       CTL2    29  DPPC   C23  3685  -0.180000  12.011000
 3686       HAL2    29  DPPC   H3R  3686   0.090000   1.008000
 3687       HAL2    29  DPPC   H3S  3687   0.090000   1.008000
 3688       CTL2    29  DPPC   C24  3688  -0.180000  12.011000
 3689       HAL2    29  DPPC   H4R  3689   0.090000   1.008000
 3690       HAL2    29  DPPC   H4S  3690   0.090000   1.008000
 3691       CTL2    29  DPPC   C25  3691  -0.180000  12.011000
 3692       HAL2    29  DPPC   H5R  3692   0.090000   1.008000
 3693       HAL2    29  DPPC   H5S  3693   0.090000   1.008000
 3694       CTL2    29  DPPC   C26  3694  -0.180000  12.011000
 3695       HAL2    29  DPPC   H6R  3695   0.090000   1.008000
 3696       HAL2    29  DPPC   H6S  3696   0.090000   1.008000
 3697       CTL2    29  DPPC   C27  3697  -0.180000  12.011000
 3698       HAL2    29  DPPC   H7R  3698   0.090000   1.008000
 3699       HAL2    29  DPPC   H7S  3699   0.090000   1.008000
 3700       CTL2    29  DPPC   C28  3700  -0.180000  12.011000
 3701       HAL2    29  DPPC   H8R  3701   0.090000   1.008000
 3702       HAL2    29  DPPC   H8S  3702   0.090000   1.008000
 3703       CTL2    29  DPPC   C29  3703  -0.180000  12.011000
 3704       HAL2    29  DPPC   H9R  3704   0.090000   1.008000
 3705       HAL2    29  DPPC   H9S  3705   0.090000   1.008000
 3706       CTL2    29  DPPC  C210  3706  -0.180000  12.011000
 3707       HAL2    29  DPPC  H10R  3707   0.090000   1.008000
 3708       HAL2    29  DPPC  H10S  3708   0.090000   1.008000
 3709       CTL2    29  DPPC  C211  3709  -0.180000  12.011000
 3710       HAL2    29  DPPC  H11R  3710   0.090000   1.008000
 3711       HAL2    29  DPPC  H11S  3711   0.090000   1.008000
 3712       CTL2    29  DPPC  C212  3712  -0.180000  12.011000
 3713       HAL2    29  DPPC  H12R  3713   0.090000   1.008000
 3714       HAL2    29  DPPC  H12S  3714   0.090000   1.008000
 3715       CTL2    29  DPPC  C213  3715  -0.180000  12.011000
 3716       HAL2    29  DPPC  H13R  3716   0.090000   1.008000
 3717       HAL2    29  DPPC  H13S  3717   0.090000   1.008000
 3718       CTL2    29  DPPC  C214  3718  -0.180000  12.011000
 3719       HAL2    29  DPPC  H14R  3719   0.090000   1.008000
 3720       HAL2    29  DPPC  H14S  3720   0.090000   1.008000
 3721       CTL2    29  DPPC  C215  3721  -0.180000  12.011000
 3722       HAL2    29  DPPC  H15R  3722   0.090000   1.008000
 3723       HAL2    29  DPPC  H15S  3723   0.090000   1.008000
 3724       CTL3    29  DPPC  C216  3724  -0.270000  12.011000
 3725       HAL3    29  DPPC  H16R  3725   0.090000   1.008000
 3726       HAL3    29  DPPC  H16S  3726   0.090000   1.008000
 3727       HAL3    29  DPPC  H16T  3727   0.090000   1.008000
 3728       CTL2    29  DPPC   C33  3728  -0.180000  12.011000
 3729       HAL2    29  DPPC   H3X  3729   0.090000   1.008000
 3730       HAL2    29  DPPC   H3Y  3730   0.090000   1.008000
 3731       CTL2    29  DPPC   C34  3731  -0.180000  12.011000
 3732       HAL2    29  DPPC   H4X  3732   0.090000   1.008000
 3733       HAL2    29  DPPC   H4Y  3733   0.090000   1.008000
 3734       CTL2    29  DPPC   C35  3734  -0.180000  12.011000
 3735       HAL2    29  DPPC   H5X  3735   0.090000   1.008000
 3736       HAL2    29  DPPC   H5Y  3736   0.090000   1.008000
 3737       CTL2    29  DPPC   C36  3737  -0.180000  12.011000
 3738       HAL2    29  DPPC   H6X  3738   0.090000   1.008000
 3739       HAL2    29  DPPC   H6Y  3739   0.090000   1.008000
 3740       CTL2    29  DPPC   C37  3740  -0.180000  12.011000
 3741       HAL2    29  DPPC   H7X  3741   0.090000   1.008000
 3742       HAL2    29  DPPC   H7Y  3742   0.090000   1.008000
 3743       CTL2    29  DPPC   C38  3743  -0.180000  12.011000
 3744       HAL2    29  DPPC   H8X  3744   0.090000   1.008000
 3745       HAL2    29  DPPC   H8Y  3745   0.090000   1.008000
 3746       CTL2    29  DPPC   C39  3746  -0.180000  12.011000
 3747       HAL2    29  DPPC   H9X  3747   0.090000   1.008000
 3748       HAL2    29  DPPC   H9Y  3748   0.090000   1.008000
 3749       CTL2    29  DPPC  C310  3749  -0.180000  12.011000
 3750       HAL2    29  DPPC  H10X  3750   0.090000   1.008000
 3751       HAL2    29  DPPC  H10Y  3751   0.090000   1.008000
 3752       CTL2    29  DPPC  C311  3752  -0.180000  12.011000
 3753       HAL2    29  DPPC  H11X  3753   0.090000   1.008000
 3754       HAL2    29  DPPC  H11Y  3754   0.090000   1.008000
 3755       CTL2    29  DPPC  C312  3755  -0.180000  12.011000
 3756       HAL2    29  DPPC  H12X  3756   0.090000   1.008000
 3757       HAL2    29  DPPC  H12Y  3757   0.090000   1.008000
 3758       CTL2    29  DPPC  C313  3758  -0.180000  12.011000
 3759       HAL2    29  DPPC  H13X  3759   0.090000   1.008000
 3760       HAL2    29  DPPC  H13Y  3760   0.090000   1.008000
 3761       CTL2    29  DPPC  C314  3761  -0.180000  12.011000
 3762       HAL2    29  DPPC  H14X  3762   0.090000   1.008000
 3763       HAL2    29  DPPC  H14Y  3763   0.090000   1.008000
 3764       CTL2    29  DPPC  C315  3764  -0.180000  12.011000
 3765       HAL2    29  DPPC  H15X  3765   0.090000   1.008000
 3766       HAL2    29  DPPC  H15Y  3766   0.090000   1.008000
 3767       CTL3    29  DPPC  C316  3767  -0.270000  12.011000
 3768       HAL3    29  DPPC  H16X  3768   0.090000   1.008000
 3769       HAL3    29  DPPC  H16Y  3769   0.090000   1.008000
 3770       HAL3    29  DPPC  H16Z  3770   0.090000   1.008000
 3771        NTL    30  DPPC     N  3771  -0.600000  14.007000
 3772       CTL5    30  DPPC   C13  3772  -0.350000  12.011000
 3773         HL    30  DPPC  H13A  3773   0.250000   1.008000
 3774         HL    30  DPPC  H13B  3774   0.250000   1.008000
 3775         HL    30  DPPC  H13C  3775   0.250000   1.008000
 3776       CTL5    30  DPPC   C14  3776  -0.350000  12.011000
 3777         HL    30  DPPC  H14A  3777   0.250000   1.008000
 3778         HL    30  DPPC  H14B  3778   0.250000   1.008000
 3779         HL    30  DPPC  H14C  3779   0.250000   1.008000
 3780       CTL5    30  DPPC   C15  3780  -0.350000  12.011000
 3781         HL    30  DPPC  H15A  3781   0.250000   1.008000
 3782         HL    30  DPPC  H15B  3782   0.250000   1.008000
 3783         HL    30  DPPC  H15C  3783   0.250000   1.008000
 3784       CTL2    30  DPPC   C12  3784  -0.100000  12.011000
 3785         HL    30  DPPC  H12A  3785   0.250000   1.008000
 3786         HL    30  DPPC  H12B  3786   0.250000   1.008000
 3787       CTL2    30  DPPC   C11  3787  -0.080000  12.011000
 3788       HAL2    30  DPPC  H11A  3788   0.090000   1.008000
 3789       HAL2    30  DPPC  H11B  3789   0.090000   1.008000
 3790         PL    30  DPPC     P  3790   1.500000  30.974001
 3791        O2L    30  DPPC   O13  3791  -0.780000  15.999400
 3792        O2L    30  DPPC   O14  3792  -0.780000  15.999400
 3793       OSLP    30  DPPC   O11  3793  -0.570000  15.999400
 3794       OSLP    30  DPPC   O12  3794  -0.570000  15.999400
 3795       CTL2    30  DPPC    C1  3795  -0.080000  12.011000
 3796       HAL2    30  DPPC    HA  3796   0.090000   1.008000
 3797       HAL2    30  DPPC    HB  3797   0.090000   1.008000
 3798       CTL1    30  DPPC    C2  3798   0.170000  12.011000
 3799       HAL1    30  DPPC    HS  3799   0.090000   1.008000
 3800        OSL    30  DPPC   O21  3800  -0.490000  15.999400
 3801         CL    30  DPPC   C21  3801   0.900000  12.011000
 3802        OBL    30  DPPC   O22  3802  -0.630000  15.999400
 3803       CTL2    30  DPPC   C22  3803  -0.220000  12.011000
 3804       HAL2    30  DPPC   H2R  3804   0.090000   1.008000
 3805       HAL2    30  DPPC   H2S  3805   0.090000   1.008000
 3806       CTL2    30  DPPC    C3  3806   0.080000  12.011000
 3807       HAL2    30  DPPC    HX  3807   0.090000   1.008000
 3808       HAL2    30  DPPC    HY  3808   0.090000   1.008000
 3809        OSL    30  DPPC   O31  3809  -0.490000  15.999400
 3810         CL    30  DPPC   C31  3810   0.900000  12.011000
 3811        OBL    30  DPPC   O32  3811  -0.630000  15.999400
 3812       CTL2    30  DPPC   C32  3812  -0.220000  12.011000
 3813       HAL2    30  DPPC   H2X  3813   0.090000   1.008000
 3814       HAL2    30  DPPC   H2Y  3814   0.090000   1.008000
 3815       CTL2    30  DPPC   C23  3815  -0.180000  12.011000
 3816       HAL2    30  DPPC   H3R  3816   0.090000   1.008000
 3817       HAL2    30  DPPC   H3S  3817   0.090000   1.008000
 3818       CTL2    30  DPPC   C24  3818  -0.180000  12.011000
 3819       HAL2    30  DPPC   H4R  3819   0.090000   1.008000
 3820       HAL2    30  DPPC   H4S  3820   0.090000   1.008000
 3821       CTL2    30  DPPC   C25  3821  -0.180000  12.011000
 3822       HAL2    30  DPPC   H5R  3822   0.090000   1.008000
 3823       HAL2    30  DPPC   H5S  3823   0.090000   1.008000
 3824       CTL2    30  DPPC   C26  3824  -0.180000  12.011000
 3825       HAL2    30  DPPC   H6R  3825   0.090000   1.008000
 3826       HAL2    30  DPPC   H6S  3826   0.090000   1.008000
 3827       CTL2    30  DPPC   C27  3827  -0.180000  12.011000
 3828       HAL2    30  DPPC   H7R  3828   0.090000   1.008000
 3829       HAL2    30  DPPC   H7S  3829   0.090000   1.008000
 3830       CTL2    30  DPPC   C28  3830  -0.180000  12.011000
 3831       HAL2    30  DPPC   H8R  3831   0.090000   1.008000
 3832       HAL2    30  DPPC   H8S  3832   0.090000   1.008000
 3833       CTL2    30  DPPC   C29  3833  -0.180000  12.011000
 3834       HAL2    30  DPPC   H9R  3834   0.090000   1.008000
 3835       HAL2    30  DPPC   H9S  3835   0.090000   1.008000
 3836       CTL2    30  DPPC  C210  3836  -0.180000  12.011000
 3837       HAL2    30  DPPC  H10R  3837   0.090000   1.008000
 3838       HAL2    30  DPPC  H10S  3838   0.090000   1.008000
 3839       CTL2    30  DPPC  C211  3839  -0.180000  12.011000
 3840       HAL2    30  DPPC  H11R  3840   0.090000   1.008000
 3841       HAL2    30  DPPC  H11S  3841   0.090000   1.008000
 3842       CTL2    30  DPPC  C212  3842  -0.180000  12.011000
 3843       HAL2    30  DPPC  H12R  3843   0.090000   1.008000
 3844       HAL2    30  DPPC  H12S  3844   0.090000   1.008000
 3845       CTL2    30  DPPC  C213  3845  -0.180000  12.011000
 3846       HAL2    30  DPPC  H13R  3846   0.090000   1.008000
 3847       HAL2    30  DPPC  H13S  3847   0.090000   1.008000
 3848       CTL2    30  DPPC  C214  3848  -0.180000  12.011000
 3849       HAL2    30  DPPC  H14R  3849   0.090000   1.008000
 3850       HAL2    30  DPPC  H14S  3850   0.090000   1.008000
 3851       CTL2    30  DPPC  C215  3851  -0.180000  12.011000
 3852       HAL2    30  DPPC  H15R  3852   0.090000   1.008000
 3853       HAL2    30  DPPC  H15S  3853   0.090000   1.008000
 3854       CTL3    30  DPPC  C216  3854  -0.270000  12.011000
 3855       HAL3    30  DPPC  H16R  3855   0.090000   1.008000
 3856       HAL3    30  DPPC  H16S  3856   0.090000   1.008000
 3857       HAL3    30  DPPC  H16T  3857   0.090000   1.008000
 3858       CTL2    30  DPPC   C33  3858  -0.180000  12.011000
 3859       HAL2    30  DPPC   H3X  3859   0.090000   1.008000
 3860       HAL2    30  DPPC   H3Y  3860   0.090000   1.008000
 3861       CTL2    30  DPPC   C34  3861  -0.180000  12.011000
 3862       HAL2    30  DPPC   H4X  3862   0.090000   1.008000
 3863       HAL2    30  DPPC   H4Y  3863   0.090000   1.008000
 3864       CTL2    30  DPPC   C35  3864  -0.180000  12.011000
 3865       HAL2    30  DPPC   H5X  3865   0.090000   1.008000
 3866       HAL2    30  DPPC   H5Y  3866   0.090000   1.008000
 3867       CTL2    30  DPPC   C36  3867  -0.180000  12.011000
 3868       HAL2    30  DPPC   H6X  3868   0.090000   1.008000
 3869       HAL2    30  DPPC   H6Y  3869   0.090000   1.008000
 3870       CTL2    30  DPPC   C37  3870  -0.180000  12.011000
 3871       HAL2    30  DPPC   H7X  3871   0.090000   1.008000
 3872       HAL2    30  DPPC   H7Y  3872   0.090000   1.008000
 3873       CTL2    30  DPPC   C38  3873  -0.180000  12.011000
 3874       HAL2    30  DPPC   H8X  3874   0.090000   1.008000
 3875       HAL2    30  DPPC   H8Y  3875   0.090000   1.008000
 3876       CTL2    30  DPPC   C39  3876  -0.180000  12.011000
 3877       HAL2    30  DPPC   H9X  3877   0.090000   1.008000
 3878       HAL2    30  DPPC   H9Y  3878   0.090000   1.008000
 3879       CTL2    30  DPPC  C310  3879  -0.180000  12.011000
 3880       HAL2    30  DPPC  H10X  3880   0.090000   1.008000
 3881       HAL2    30  DPPC  H10Y  3881   0.090000   1.008000
 3882       CTL2    30  DPPC  C311  3882  -0.180000  12.011000
 3883       HAL2    30  DPPC  H11X  3883   0.090000   1.008000
 3884       HAL2    30  DPPC  H11Y  3884   0.090000   1.008000
 3885       CTL2    30  DPPC  C312  3885  -0.180000  12.011000
 3886       HAL2    30  DPPC  H12X  3886   0.090000   1.008000
 3887       HAL2    30  DPPC  H12Y  3887   0.090000   1.008000
 3888       CTL2    30  DPPC  C313  3888  -0.180000  12.011000
 3889       HAL2    30  DPPC  H13X  3889   0.090000   1.008000
 3890       HAL2    30  DPPC  H13Y  3890   0.090000   1.008000
 3891       CTL2    30  DPPC  C314  3891  -0.180000  12.011000
 3892       HAL2    30  DPPC  H14X  3892   0.090000   1.008000
 3893       HAL2    30  DPPC  H14Y  3893   0.090000   1.008000
 3894       CTL2    30  DPPC  C315  3894  -0.180000  12.011000
 3895       HAL2    30  DPPC  H15X  3895   0.090000   1.008000
 3896       HAL2    30  DPPC  H15Y  3896   0.090000   1.008000
 3897       CTL3    30  DPPC  C316  3897  -0.270000  12.011000
 3898       HAL3    30  DPPC  H16X  3898   0.090000   1.008000
 3899       HAL3    30  DPPC  H16Y  3899   0.090000   1.008000
 3900       HAL3    30  DPPC  H16Z  3900   0.090000   1.008000
 3901        NTL    31  DPPC     N  3901  -0.600000  14.007000
 3902       CTL5    31  DPPC   C13  3902  -0.350000  12.011000
 3903         HL    31  DPPC  H13A  3903   0.250000   1.008000
 3904         HL    31  DPPC  H13B  3904   0.250000   1.008000
 3905         HL    31  DPPC  H13C  3905   0.250000   1.008000
 3906       CTL5    31  DPPC   C14  3906  -0.350000  12.011000
 3907         HL    31  DPPC  H14A  3907   0.250000   1.008000
 3908         HL    31  DPPC  H14B  3908   0.250000   1.008000
 3909         HL    31  DPPC  H14C  3909   0.250000   1.008000
 3910       CTL5    31  DPPC   C15  3910  -0.350000  12.011000
 3911         HL    31  DPPC  H15A  3911   0.250000   1.008000
 3912         HL    31  DPPC  H15B  3912   0.250000   1.008000
 3913         HL    31  DPPC  H15C  3913   0.250000   1.008000
 3914       CTL2    31  DPPC   C12  3914  -0.100000  12.011000
 3915         HL    31  DPPC  H12A  3915   0.250000   1.008000
 3916         HL    31  DPPC  H12B  3916   0.250000   1.008000
 3917       CTL2    31  DPPC   C11  3917  -0.080000  12.011000
 3918       HAL2    31  DPPC  H11A  3918   0.090000   1.008000
 3919       HAL2    31  DPPC  H11B  3919   0.090000   1.008000
 3920         PL    31  DPPC     P  3920   1.500000  30.974001
 3921        O2L    31  DPPC   O13  3921  -0.780000  15.999400
 3922        O2L    31  DPPC   O14  3922  -0.780000  15.999400
 3923       OSLP    31  DPPC   O11  3923  -0.570000  15.999400
 3924       OSLP    31  DPPC   O12  3924  -0.570000  15.999400
 3925       CTL2    31  DPPC    C1  3925  -0.080000  12.011000
 3926       HAL2    31  DPPC    HA  3926   0.090000   1.008000
 3927       HAL2    31  DPPC    HB  3927   0.090000   1.008000
 3928       CTL1    31  DPPC    C2  3928   0.170000  12.011000
 3929       HAL1    31  DPPC    HS  3929   0.090000   1.008000
 3930        OSL    31  DPPC   O21  3930  -0.490000  15.999400
 3931         CL    31  DPPC   C21  3931   0.900000  12.011000
 3932        OBL    31  DPPC   O22  3932  -0.630000  15.999400
 3933       CTL2    31  DPPC   C22  3933  -0.220000  12.011000
 3934       HAL2    31  DPPC   H2R  3934   0.090000   1.008000
 3935       HAL2    31  DPPC   H2S  3935   0.090000   1.008000
 3936       CTL2    31  DPPC    C3  3936   0.080000  12.011000
 3937       HAL2    31  DPPC    HX  3937   0.090000   1.008000
 3938       HAL2    31  DPPC    HY  3938   0.090000   1.008000
 3939        OSL    31  DPPC   O31  3939  -0.490000  15.999400
 3940         CL    31  DPPC   C31  3940   0.900000  12.011000
 3941        OBL    31  DPPC   O32  3941  -0.630000  15.999400
 3942       CTL2    31  DPPC   C32  3942  -0.220000  12.011000
 3943       HAL2    31  DPPC   H2X  3943   0.090000   1.008000
 3944       HAL2    31  DPPC   H2Y  3944   0.090000   1.008000
 3945       CTL2    31  DPPC   C23  3945  -0.180000  12.011000
 3946       HAL2    31  DPPC   H3R  3946   0.090000   1.008000
 3947       HAL2    31  DPPC   H3S  3947   0.090000   1.008000
 3948       CTL2    31  DPPC   C24  3948  -0.180000  12.011000
 3949       HAL2    31  DPPC   H4R  3949   0.090000   1.008000
 3950       HAL2    31  DPPC   H4S  3950   0.090000   1.008000
 3951       CTL2    31  DPPC   C25  3951  -0.180000  12.011000
 3952       HAL2    31  DPPC   H5R  3952   0.090000   1.008000
 3953       HAL2    31  DPPC   H5S  3953   0.090000   1.008000
 3954       CTL2    31  DPPC   C26  3954  -0.180000  12.011000
 3955       HAL2    31  DPPC   H6R  3955   0.090000   1.008000
 3956       HAL2    31  DPPC   H6S  3956   0.090000   1.008000
 3957       CTL2    31  DPPC   C27  3957  -0.180000  12.011000
 3958       HAL2    31  DPPC   H7R  3958   0.090000   1.008000
 3959       HAL2    31  DPPC   H7S  3959   0.090000   1.008000
 3960       CTL2    31  DPPC   C28  3960  -0.180000  12.011000
 3961       HAL2    31  DPPC   H8R  3961   0.090000   1.008000
 3962       HAL2    31  DPPC   H8S  3962   0.090000   1.008000
 3963       CTL2    31  DPPC   C29  3963  -0.180000  12.011000
 3964       HAL2    31  DPPC   H9R  3964   0.090000   1.008000
 3965       HAL2    31  DPPC   H9S  3965   0.090000   1.008000
 3966       CTL2    31  DPPC  C210  3966  -0.180000  12.011000
 3967       HAL2    31  DPPC  H10R  3967   0.090000   1.008000
 3968       HAL2    31  DPPC  H10S  3968   0.090000   1.008000
 3969       CTL2    31  DPPC  C211  3969  -0.180000  12.011000
 3970       HAL2    31  DPPC  H11R  3970   0.090000   1.008000
 3971       HAL2    31  DPPC  H11S  3971   0.090000   1.008000
 3972       CTL2    31  DPPC  C212  3972  -0.180000  12.011000
 3973       HAL2    31  DPPC  H12R  3973   0.090000   1.008000
 3974       HAL2    31  DPPC  H12S  3974   0.090000   1.008000
 3975       CTL2    31  DPPC  C213  3975  -0.180000  12.011000
 3976       HAL2    31  DPPC  H13R  3976   0.090000   1.008000
 3977       HAL2    31  DPPC  H13S  3977   0.090000   1.008000
 3978       CTL2    31  DPPC  C214  3978  -0.180000  12.011000
 3979       HAL2    31  DPPC  H14R  3979   0.090000   1.008000
 3980       HAL2    31  DPPC  H14S  3980   0.090000   1.008000
 3981       CTL2    31  DPPC  C215  3981  -0.180000  12.011000
 3982       HAL2    31  DPPC  H15R  3982   0.090000   1.008000
 3983       HAL2    31  DPPC  H15S  3983   0.090000   1.008000
 3984       CTL3    31  DPPC  C216  3984  -0.270000  12.011000
 3985       HAL3    31  DPPC  H16R  3985   0.090000   1.008000
 3986       HAL3    31  DPPC  H16S  3986   0.090000   1.008000
 3987       HAL3    31  DPPC  H16T  3987   0.090000   1.008000
 3988       CTL2    31  DPPC   C33  3988  -0.180000  12.011000
 3989       HAL2    31  DPPC   H3X  3989   0.090000   1.008000
 3990       HAL2    31  DPPC   H3Y  3990   0.090000   1.008000
 3991       CTL2    31  DPPC   C34  3991  -0.180000  12.011000
 3992       HAL2    31  DPPC   H4X  3992   0.090000   1.008000
 3993       HAL2    31  DPPC   H4Y  3993   0.090000   1.008000
 3994       CTL2    31  DPPC   C35  3994  -0.180000  12.011000
 3995       HAL2    31  DPPC   H5X  3995   0.090000   1.008000
 3996       HAL2    31  DPPC   H5Y  3996   0.090000   1.008000
 3997       CTL2    31  DPPC   C36  3997  -0.180000  12.011000
 3998       HAL2    31  DPPC   H6X  3998   0.090000   1.008000
 3999       HAL2    31  DPPC   H6Y  3999   0.090000   1.008000
 4000       CTL2    31  DPPC   C37  4000  -0.180000  12.011000
 4001       HAL2    31  DPPC   H7X  4001   0.090000   1.008000
 4002       HAL2    31  DPPC   H7Y  4002   0.090000   1.008000
 4003       CTL2    31  DPPC   C38  4003  -0.180000  12.011000
 4004       HAL2    31  DPPC   H8X  4004   0.090000   1.008000
 4005       HAL2    31  DPPC   H8Y  4005   0.090000   1.008000
 4006       CTL2    31  DPPC   C39  4006  -0.180000  12.011000
 4007       HAL2    31  DPPC   H9X  4007   0.090000   1.008000
 4008       HAL2    31  DPPC   H9Y  4008   0.090000   1.008000
 4009       CTL2    31  DPPC  C310  4009  -0.180000  12.011000
 4010       HAL2    31  DPPC  H10X  4010   0.090000   1.008000
 4011       HAL2    31  DPPC  H10Y  4011   0.090000   1.008000
 4012       CTL2    31  DPPC  C311  4012  -0.180000  12.011000
 4013       HAL2    31  DPPC  H11X  4013   0.090000   1.008000
 4014       HAL2    31  DPPC  H11Y  4014   0.090000   1.008000
 4015       CTL2    31  DPPC  C312  4015  -0.180000  12.011000
 4016       HAL2    31  DPPC  H12X  4016   0.090000   1.008000
 4017       HAL2    31  DPPC  H12Y  4017   0.090000   1.008000
 4018       CTL2    31  DPPC  C313  4018  -0.180000  12.011000
 4019       HAL2    31  DPPC  H13X  4019   0.090000   1.008000
 4020       HAL2    31  DPPC  H13Y  4020   0.090000   1.008000
 4021       CTL2    31  DPPC  C314  4021  -0.180000  12.011000
 4022       HAL2    31  DPPC  H14X  4022   0.090000   1.008000
 4023       HAL2    31  DPPC  H14Y  4023   0.090000   1.008000
 4024       CTL2    31  DPPC  C315  4024  -0.180000  12.011000
 4025       HAL2    31  DPPC  H15X  4025   0.090000   1.008000
 4026       HAL2    31  DPPC  H15Y  4026   0.090000   1.008000
 4027       CTL3    31  DPPC  C316  4027  -0.270000  12.011000
 4028       HAL3    31  DPPC  H16X  4028   0.090000   1.008000
 4029       HAL3    31  DPPC  H16Y  4029   0.090000   1.008000
 4030       HAL3    31  DPPC  H16Z  4030   0.090000   1.008000
 4031        NTL    32  DPPC     N  4031  -0.600000  14.007000
 4032       CTL5    32  DPPC   C13  4032  -0.350000  12.011000
 4033         HL    32  DPPC  H13A  4033   0.250000   1.008000
 4034         HL    32  DPPC  H13B  4034   0.250000   1.008000
 4035         HL    32  DPPC  H13C  4035   0.250000   1.008000
 4036       CTL5    32  DPPC   C14  4036  -0.350000  12.011000
 4037         HL    32  DPPC  H14A  4037   0.250000   1.008000
 4038         HL    32  DPPC  H14B  4038   0.250000   1.008000
 4039         HL    32  DPPC  H14C  4039   0.250000   1.008000
 4040       CTL5    32  DPPC   C15  4040  -0.350000  12.011000
 4041         HL    32  DPPC  H15A  4041   0.250000   1.008000
 4042         HL    32  DPPC  H15B  4042   0.250000   1.008000
 4043         HL    32  DPPC  H15C  4043   0.250000   1.008000
 4044       CTL2    32  DPPC   C12  4044  -0.100000  12.011000
 4045         HL    32  DPPC  H12A  4045   0.250000   1.008000
 4046         HL    32  DPPC  H12B  4046   0.250000   1.008000
 4047       CTL2    32  DPPC   C11  4047  -0.080000  12.011000
 4048       HAL2    32  DPPC  H11A  4048   0.090000   1.008000
 4049       HAL2    32  DPPC  H11B  4049   0.090000   1.008000
 4050         PL    32  DPPC     P  4050   1.500000  30.974001
 4051        O2L    32  DPPC   O13  4051  -0.780000  15.999400
 4052        O2L    32  DPPC   O14  4052  -0.780000  15.999400
 4053       OSLP    32  DPPC   O11  4053  -0.570000  15.999400
 4054       OSLP    32  DPPC   O12  4054  -0.570000  15.999400
 4055       CTL2    32  DPPC    C1  4055  -0.080000  12.011000
 4056       HAL2    32  DPPC    HA  4056   0.090000   1.008000
 4057       HAL2    32  DPPC    HB  4057   0.090000   1.008000
 4058       CTL1    32  DPPC    C2  4058   0.170000  12.011000
 4059       HAL1    32  DPPC    HS  4059   0.090000   1.008000
 4060        OSL    32  DPPC   O21  4060  -0.490000  15.999400
 4061         CL    32  DPPC   C21  4061   0.900000  12.011000
 4062        OBL    32  DPPC   O22  4062  -0.630000  15.999400
 4063       CTL2    32  DPPC   C22  4063  -0.220000  12.011000
 4064       HAL2    32  DPPC   H2R  4064   0.090000   1.008000
 4065       HAL2    32  DPPC   H2S  4065   0.090000   1.008000
 4066       CTL2    32  DPPC    C3  4066   0.080000  12.011000
 4067       HAL2    32  DPPC    HX  4067   0.090000   1.008000
 4068       HAL2    32  DPPC    HY  4068   0.090000   1.008000
 4069        OSL    32  DPPC   O31  4069  -0.490000  15.999400
 4070         CL    32  DPPC   C31  4070   0.900000  12.011000
 4071        OBL    32  DPPC   O32  4071  -0.630000  15.999400
 4072       CTL2    32  DPPC   C32  4072  -0.220000  12.011000
 4073       HAL2    32  DPPC   H2X  4073   0.090000   1.008000
 4074       HAL2    32  DPPC   H2Y  4074   0.090000   1.008000
 4075       CTL2    32  DPPC   C23  4075  -0.180000  12.011000
 4076       HAL2    32  DPPC   H3R  4076   0.090000   1.008000
 4077       HAL2    32  DPPC   H3S  4077   0.090000   1.008000
 4078       CTL2    32  DPPC   C24  4078  -0.180000  12.011000
 4079       HAL2    32  DPPC   H4R  4079   0.090000   1.008000
 4080       HAL2    32  DPPC   H4S  4080   0.090000   1.008000
 4081       CTL2    32  DPPC   C25  4081  -0.180000  12.011000
 4082       HAL2    32  DPPC   H5R  4082   0.090000   1.008000
 4083       HAL2    32  DPPC   H5S  4083   0.090000   1.008000
 4084       CTL2    32  DPPC   C26  4084  -0.180000  12.011000
 4085       HAL2    32  DPPC   H6R  4085   0.090000   1.008000
 4086       HAL2    32  DPPC   H6S  4086   0.090000   1.008000
 4087       CTL2    32  DPPC   C27  4087  -0.180000  12.011000
 4088       HAL2    32  DPPC   H7R  4088   0.090000   1.008000
 4089       HAL2    32  DPPC   H7S  4089   0.090000   1.008000
 4090       CTL2    32  DPPC   C28  4090  -0.180000  12.011000
 4091       HAL2    32  DPPC   H8R  4091   0.090000   1.008000
 4092       HAL2    32  DPPC   H8S  4092   0.090000   1.008000
 4093       CTL2    32  DPPC   C29  4093  -0.180000  12.011000
 4094       HAL2    32  DPPC   H9R  4094   0.090000   1.008000
 4095       HAL2    32  DPPC   H9S  4095   0.090000   1.008000
 4096       CTL2    32  DPPC  C210  4096  -0.180000  12.011000
 4097       HAL2    32  DPPC  H10R  4097   0.090000   1.008000
 4098       HAL2    32  DPPC  H10S  4098   0.090000   1.008000
 4099       CTL2    32  DPPC  C211  4099  -0.180000  12.011000
 4100       HAL2    32  DPPC  H11R  4100   0.090000   1.008000
 4101       HAL2    32  DPPC  H11S  4101   0.090000   1.008000
 4102       CTL2    32  DPPC  C212  4102  -0.180000  12.011000
 4103       HAL2    32  DPPC  H12R  4103   0.090000   1.008000
 4104       HAL2    32  DPPC  H12S  4104   0.090000   1.008000
 4105       CTL2    32  DPPC  C213  4105  -0.180000  12.011000
 4106       HAL2    32  DPPC  H13R  4106   0.090000   1.008000
 4107       HAL2    32  DPPC  H13S  4107   0.090000   1.008000
 4108       CTL2    32  DPPC  C214  4108  -0.180000  12.011000
 4109       HAL2    32  DPPC  H14R  4109   0.090000   1.008000
 4110       HAL2    32  DPPC  H14S  4110   0.090000   1.008000
 4111       CTL2    32  DPPC  C215  4111  -0.180000  12.011000
 4112       HAL2    32  DPPC  H15R  4112   0.090000   1.008000
 4113       HAL2    32  DPPC  H15S  4113   0.090000   1.008000
 4114       CTL3    32  DPPC  C216  4114  -0.270000  12.011000
 4115       HAL3    32  DPPC  H16R  4115   0.090000   1.008000
 4116       HAL3    32  DPPC  H16S  4116   0.090000   1.008000
 4117       HAL3    32  DPPC  H16T  4117   0.090000   1.008000
 4118       CTL2    32  DPPC   C33  4118  -0.180000  12.011000
 4119       HAL2    32  DPPC   H3X  4119   0.090000   1.008000
 4120       HAL2    32  DPPC   H3Y  4120   0.090000   1.008000
 4121       CTL2    32  DPPC   C34  4121  -0.180000  12.011000
 4122       HAL2    32  DPPC   H4X  4122   0.090000   1.008000
 4123       HAL2    32  DPPC   H4Y  4123   0.090000   1.008000
 4124       CTL2    32  DPPC   C35  4124  -0.180000  12.011000
 4125       HAL2    32  DPPC   H5X  4125   0.090000   1.008000
 4126       HAL2    32  DPPC   H5Y  4126   0.090000   1.008000
 4127       CTL2    32  DPPC   C36  4127  -0.180000  12.011000
 4128       HAL2    32  DPPC   H6X  4128   0.090000   1.008000
 4129       HAL2    32  DPPC   H6Y  4129   0.090000   1.008000
 4130       CTL2    32  DPPC   C37  4130  -0.180000  12.011000
 4131       HAL2    32  DPPC   H7X  4131   0.090000   1.008000
 4132       HAL2    32  DPPC   H7Y  4132   0.090000   1.008000
 4133       CTL2    32  DPPC   C38  4133  -0.180000  12.011000
 4134       HAL2    32  DPPC   H8X  4134   0.090000   1.008000
 4135       HAL2    32  DPPC   H8Y  4135   0.090000   1.008000
 4136       CTL2    32  DPPC   C39  4136  -0.180000  12.011000
 4137       HAL2    32  DPPC   H9X  4137   0.090000   1.008000
 4138       HAL2    32  DPPC   H9Y  4138   0.090000   1.008000
 4139       CTL2    32  DPPC  C310  4139  -0.180000  12.011000
 4140       HAL2    32  DPPC  H10X  4140   0.090000   1.008000
 4141       HAL2    32  DPPC  H10Y  4141   0.090000   1.008000
 4142       CTL2    32  DPPC  C311  4142  -0.180000  12.011000
 4143       HAL2    32  DPPC  H11X  4143   0.090000   1.008000
 4144       HAL2    32  DPPC  H11Y  4144   0.090000   1.008000
 4145       CTL2    32  DPPC  C312  4145  -0.180000  12.011000
 4146       HAL2    32  DPPC  H12X  4146   0.090000   1.008000
 4147       HAL2    32  DPPC  H12Y  4147   0.090000   1.008000
 4148       CTL2    32  DPPC  C313  4148  -0.180000  12.011000
 4149       HAL2    32  DPPC  H13X  4149   0.090000   1.008000
 4150       HAL2    32  DPPC  H13Y  4150   0.090000   1.008000
 4151       CTL2    32  DPPC  C314  4151  -0.180000  12.011000
 4152       HAL2    32  DPPC  H14X  4152   0.090000   1.008000
 4153       HAL2    32  DPPC  H14Y  4153   0.090000   1.008000
 4154       CTL2    32  DPPC  C315  4154  -0.180000  12.011000
 4155       HAL2    32  DPPC  H15X  4155   0.090000   1.008000
 4156       HAL2    32  DPPC  H15Y  4156   0.090000   1.008000
 4157       CTL3    32  DPPC  C316  4157  -0.270000  12.011000
 4158       HAL3    32  DPPC  H16X  4158   0.090000   1.008000
 4159       HAL3    32  DPPC  H16Y  4159   0.090000   1.008000
 4160       HAL3    32  DPPC  H16Z  4160   0.090000   1.008000
 4161        NTL    33  DPPC     N  4161  -0.600000  14.007000
 4162       CTL5    33  DPPC   C13  4162  -0.350000  12.011000
 4163         HL    33  DPPC  H13A  4163   0.250000   1.008000
 4164         HL    33  DPPC  H13B  4164   0.250000   1.008000
 4165         HL    33  DPPC  H13C  4165   0.250000   1.008000
 4166       CTL5    33  DPPC   C14  4166  -0.350000  12.011000
 4167         HL    33  DPPC  H14A  4167   0.250000   1.008000
 4168         HL    33  DPPC  H14B  4168   0.250000   1.008000
 4169         HL    33  DPPC  H14C  4169   0.250000   1.008000
 4170       CTL5    33  DPPC   C15  4170  -0.350000  12.011000
 4171         HL    33  DPPC  H15A  4171   0.250000   1.008000
 4172         HL    33  DPPC  H15B  4172   0.250000   1.008000
 4173         HL    33  DPPC  H15C  4173   0.250000   1.008000
 4174       CTL2    33  DPPC   C12  4174  -0.100000  12.011000
 4175         HL    33  DPPC  H12A  4175   0.250000   1.008000
 4176         HL    33  DPPC  H12B  4176   0.250000   1.008000
 4177       CTL2    33  DPPC   C11  4177  -0.080000  12.011000
 4178       HAL2    33  DPPC  H11A  4178   0.090000   1.008000
 4179       HAL2    33  DPPC  H11B  4179   0.090000   1.008000
 4180         PL    33  DPPC     P  4180   1.500000  30.974001
 4181        O2L    33  DPPC   O13  4181  -0.780000  15.999400
 4182        O2L    33  DPPC   O14  4182  -0.780000  15.999400
 4183       OSLP    33  DPPC   O11  4183  -0.570000  15.999400
 4184       OSLP    33  DPPC   O12  4184  -0.570000  15.999400
 4185       CTL2    33  DPPC    C1  4185  -0.080000  12.011000
 4186       HAL2    33  DPPC    HA  4186   0.090000   1.008000
 4187       HAL2    33  DPPC    HB  4187   0.090000   1.008000
 4188       CTL1    33  DPPC    C2  4188   0.170000  12.011000
 4189       HAL1    33  DPPC    HS  4189   0.090000   1.008000
 4190        OSL    33  DPPC   O21  4190  -0.490000  15.999400
 4191         CL    33  DPPC   C21  4191   0.900000  12.011000
 4192        OBL    33  DPPC   O22  4192  -0.630000  15.999400
 4193       CTL2    33  DPPC   C22  4193  -0.220000  12.011000
 4194       HAL2    33  DPPC   H2R  4194   0.090000   1.008000
 4195       HAL2    33  DPPC   H2S  4195   0.090000   1.008000
 4196       CTL2    33  DPPC    C3  4196   0.080000  12.011000
 4197       HAL2    33  DPPC    HX  4197   0.090000   1.008000
 4198       HAL2    33  DPPC    HY  4198   0.090000   1.008000
 4199        OSL    33  DPPC   O31  4199  -0.490000  15.999400
 4200         CL    33  DPPC   C31  4200   0.900000  12.011000
 4201        OBL    33  DPPC   O32  4201  -0.630000  15.999400
 4202       CTL2    33  DPPC   C32  4202  -0.220000  12.011000
 4203       HAL2    33  DPPC   H2X  4203   0.090000   1.008000
 4204       HAL2    33  DPPC   H2Y  4204   0.090000   1.008000
 4205       CTL2    33  DPPC   C23  4205  -0.180000  12.011000
 4206       HAL2    33  DPPC   H3R  4206   0.090000   1.008000
 4207       HAL2    33  DPPC   H3S  4207   0.090000   1.008000
 4208       CTL2    33  DPPC   C24  4208  -0.180000  12.011000
 4209       HAL2    33  DPPC   H4R  4209   0.090000   1.008000
 4210       HAL2    33  DPPC   H4S  4210   0.090000   1.008000
 4211       CTL2    33  DPPC   C25  4211  -0.180000  12.011000
 4212       HAL2    33  DPPC   H5R  4212   0.090000   1.008000
 4213       HAL2    33  DPPC   H5S  4213   0.090000   1.008000
 4214       CTL2    33  DPPC   C26  4214  -0.180000  12.011000
 4215       HAL2    33  DPPC   H6R  4215   0.090000   1.008000
 4216       HAL2    33  DPPC   H6S  4216   0.090000   1.008000
 4217       CTL2    33  DPPC   C27  4217  -0.180000  12.011000
 4218       HAL2    33  DPPC   H7R  4218   0.090000   1.008000
 4219       HAL2    33  DPPC   H7S  4219   0.090000   1.008000
 4220       CTL2    33  DPPC   C28  4220  -0.180000  12.011000
 4221       HAL2    33  DPPC   H8R  4221   0.090000   1.008000
 4222       HAL2    33  DPPC   H8S  4222   0.090000   1.008000
 4223       CTL2    33  DPPC   C29  4223  -0.180000  12.011000
 4224       HAL2    33  DPPC   H9R  4224   0.090000   1.008000
 4225       HAL2    33  DPPC   H9S  4225   0.090000   1.008000
 4226       CTL2    33  DPPC  C210  4226  -0.180000  12.011000
 4227       HAL2    33  DPPC  H10R  4227   0.090000   1.008000
 4228       HAL2    33  DPPC  H10S  4228   0.090000   1.008000
 4229       CTL2    33  DPPC  C211  4229  -0.180000  12.011000
 4230       HAL2    33  DPPC  H11R  4230   0.090000   1.008000
 4231       HAL2    33  DPPC  H11S  4231   0.090000   1.008000
 4232       CTL2    33  DPPC  C212  4232  -0.180000  12.011000
 4233       HAL2    33  DPPC  H12R  4233   0.090000   1.008000
 4234       HAL2    33  DPPC  H12S  4234   0.090000   1.008000
 4235       CTL2    33  DPPC  C213  4235  -0.180000  12.011000
 4236       HAL2    33  DPPC  H13R  4236   0.090000   1.008000
 4237       HAL2    33  DPPC  H13S  4237   0.090000   1.008000
 4238       CTL2    33  DPPC  C214  4238  -0.180000  12.011000
 4239       HAL2    33  DPPC  H14R  4239   0.090000   1.008000
 4240       HAL2    33  DPPC  H14S  4240   0.090000   1.008000
 4241       CTL2    33  DPPC  C215  4241  -0.180000  12.011000
 4242       HAL2    33  DPPC  H15R  4242   0.090000   1.008000
 4243       HAL2    33  DPPC  H15S  4243   0.090000   1.008000
 4244       CTL3    33  DPPC  C216  4244  -0.270000  12.011000
 4245       HAL3    33  DPPC  H16R  4245   0.090000   1.008000
 4246       HAL3    33  DPPC  H16S  4246   0.090000   1.008000
 4247       HAL3    33  DPPC  H16T  4247   0.090000   1.008000
 4248       CTL2    33  DPPC   C33  4248  -0.180000  12.011000
 4249       HAL2    33  DPPC   H3X  4249   0.090000   1.008000
 4250       HAL2    33  DPPC   H3Y  4250   0.090000   1.008000
 4251       CTL2    33  DPPC   C34  4251  -0.180000  12.011000
 4252       HAL2    33  DPPC   H4X  4252   0.090000   1.008000
 4253       HAL2    33  DPPC   H4Y  4253   0.090000   1.008000
 4254       CTL2    33  DPPC   C35  4254  -0.180000  12.011000
 4255       HAL2    33  DPPC   H5X  4255   0.090000   1.008000
 4256       HAL2    33  DPPC   H5Y  4256   0.090000   1.008000
 4257       CTL2    33  DPPC   C36  4257  -0.180000  12.011000
 4258       HAL2    33  DPPC   H6X  4258   0.090000   1.008000
 4259       HAL2    33  DPPC   H6Y  4259   0.090000   1.008000
 4260       CTL2    33  DPPC   C37  4260  -0.180000  12.011000
 4261       HAL2    33  DPPC   H7X  4261   0.090000   1.008000
 4262       HAL2    33  DPPC   H7Y  4262   0.090000   1.008000
 4263       CTL2    33  DPPC   C38  4263  -0.180000  12.011000
 4264       HAL2    33  DPPC   H8X  4264   0.090000   1.008000
 4265       HAL2    33  DPPC   H8Y  4265   0.090000   1.008000
 4266       CTL2    33  DPPC   C39  4266  -0.180000  12.011000
 4267       HAL2    33  DPPC   H9X  4267   0.090000   1.008000
 4268       HAL2    33  DPPC   H9Y  4268   0.090000   1.008000
 4269       CTL2    33  DPPC  C310  4269  -0.180000  12.011000
 4270       HAL2    33  DPPC  H10X  4270   0.090000   1.008000
 4271       HAL2    33  DPPC  H10Y  4271   0.090000   1.008000
 4272       CTL2    33  DPPC  C311  4272  -0.180000  12.011000
 4273       HAL2    33  DPPC  H11X  4273   0.090000   1.008000
 4274       HAL2    33  DPPC  H11Y  4274   0.090000   1.008000
 4275       CTL2    33  DPPC  C312  4275  -0.180000  12.011000
 4276       HAL2    33  DPPC  H12X  4276   0.090000   1.008000
 4277       HAL2    33  DPPC  H12Y  4277   0.090000   1.008000
 4278       CTL2    33  DPPC  C313  4278  -0.180000  12.011000
 4279       HAL2    33  DPPC  H13X  4279   0.090000   1.008000
 4280       HAL2    33  DPPC  H13Y  4280   0.090000   1.008000
 4281       CTL2    33  DPPC  C314  4281  -0.180000  12.011000
 4282       HAL2    33  DPPC  H14X  4282   0.090000   1.008000
 4283       HAL2    33  DPPC  H14Y  4283   0.090000   1.008000
 4284       CTL2    33  DPPC  C315  4284  -0.180000  12.011000
 4285       HAL2    33  DPPC  H15X  4285   0.090000   1.008000
 4286       HAL2    33  DPPC  H15Y  4286   0.090000   1.008000
 4287       CTL3    33  DPPC  C316  4287  -0.270000  12.011000
 4288       HAL3    33  DPPC  H16X  4288   0.090000   1.008000
 4289       HAL3    33  DPPC  H16Y  4289   0.090000   1.008000
 4290       HAL3    33  DPPC  H16Z  4290   0.090000   1.008000
 4291        NTL    34  DPPC     N  4291  -0.600000  14.007000
 4292       CTL5    34  DPPC   C13  4292  -0.350000  12.011000
 4293         HL    34  DPPC  H13A  4293   0.250000   1.008000
 4294         HL    34  DPPC  H13B  4294   0.250000   1.008000
 4295         HL    34  DPPC  H13C  4295   0.250000   1.008000
 4296       CTL5    34  DPPC   C14  4296  -0.350000  12.011000
 4297         HL    34  DPPC  H14A  4297   0.250000   1.008000
 4298         HL    34  DPPC  H14B  4298   0.250000   1.008000
 4299         HL    34  DPPC  H14C  4299   0.250000   1.008000
 4300       CTL5    34  DPPC   C15  4300  -0.350000  12.011000
 4301         HL    34  DPPC  H15A  4301   0.250000   1.008000
 4302         HL    34  DPPC  H15B  4302   0.250000   1.008000
 4303         HL    34  DPPC  H15C  4303   0.250000   1.008000
 4304       CTL2    34  DPPC   C12  4304  -0.100000  12.011000
 4305         HL    34  DPPC  H12A  4305   0.250000   1.008000
 4306         HL    34  DPPC  H12B  4306   0.250000   1.008000
 4307       CTL2    34  DPPC   C11  4307  -0.080000  12.011000
 4308       HAL2    34  DPPC  H11A  4308   0.090000   1.008000
 4309       HAL2    34  DPPC  H11B  4309   0.090000   1.008000
 4310         PL    34  DPPC     P  4310   1.500000  30.974001
 4311        O2L    34  DPPC   O13  4311  -0.780000  15.999400
 4312        O2L    34  DPPC   O14  4312  -0.780000  15.999400
 4313       OSLP    34  DPPC   O11  4313  -0.570000  15.999400
 4314       OSLP    34  DPPC   O12  4314  -0.570000  15.999400
 4315       CTL2    34  DPPC    C1  4315  -0.080000  12.011000
 4316       HAL2    34  DPPC    HA  4316   0.090000   1.008000
 4317       HAL2    34  DPPC    HB  4317   0.090000   1.008000
 4318       CTL1    34  DPPC    C2  4318   0.170000  12.011000
 4319       HAL1    34  DPPC    HS  4319   0.090000   1.008000
 4320        OSL    34  DPPC   O21  4320  -0.490000  15.999400
 4321         CL    34  DPPC   C21  4321   0.900000  12.011000
 4322        OBL    34  DPPC   O22  4322  -0.630000  15.999400
 4323       CTL2    34  DPPC   C22  4323  -0.220000  12.011000
 4324       HAL2    34  DPPC   H2R  4324   0.090000   1.008000
 4325       HAL2    34  DPPC   H2S  4325   0.090000   1.008000
 4326       CTL2    34  DPPC    C3  4326   0.080000  12.011000
 4327       HAL2    34  DPPC    HX  4327   0.090000   1.008000
 4328       HAL2    34  DPPC    HY  4328   0.090000   1.008000
 4329        OSL    34  DPPC   O31  4329  -0.490000  15.999400
 4330         CL    34  DPPC   C31  4330   0.900000  12.011000
 4331        OBL    34  DPPC   O32  4331  -0.630000  15.999400
 4332       CTL2    34  DPPC   C32  4332  -0.220000  12.011000
 4333       HAL2    34  DPPC   H2X  4333   0.090000   1.008000
 4334       HAL2    34  DPPC   H2Y  4334   0.090000   1.008000
 4335       CTL2    34  DPPC   C23  4335  -0.180000  12.011000
 4336       HAL2    34  DPPC   H3R  4336   0.090000   1.008000
 4337       HAL2    34  DPPC   H3S  4337   0.090000   1.008000
 4338       CTL2    34  DPPC   C24  4338  -0.180000  12.011000
 4339       HAL2    34  DPPC   H4R  4339   0.090000   1.008000
 4340       HAL2    34  DPPC   H4S  4340   0.090000   1.008000
 4341       CTL2    34  DPPC   C25  4341  -0.180000  12.011000
 4342       HAL2    34  DPPC   H5R  4342   0.090000   1.008000
 4343       HAL2    34  DPPC   H5S  4343   0.090000   1.008000
 4344       CTL2    34  DPPC   C26  4344  -0.180000  12.011000
 4345       HAL2    34  DPPC   H6R  4345   0.090000   1.008000
 4346       HAL2    34  DPPC   H6S  4346   0.090000   1.008000
 4347       CTL2    34  DPPC   C27  4347  -0.180000  12.011000
 4348       HAL2    34  DPPC   H7R  4348   0.090000   1.008000
 4349       HAL2    34  DPPC   H7S  4349   0.090000   1.008000
 4350       CTL2    34  DPPC   C28  4350  -0.180000  12.011000
 4351       HAL2    34  DPPC   H8R  4351   0.090000   1.008000
 4352       HAL2    34  DPPC   H8S  4352   0.090000   1.008000
 4353       CTL2    34  DPPC   C29  4353  -0.180000  12.011000
 4354       HAL2    34  DPPC   H9R  4354   0.090000   1.008000
 4355       HAL2    34  DPPC   H9S  4355   0.090000   1.008000
 4356       CTL2    34  DPPC  C210  4356  -0.180000  12.011000
 4357       HAL2    34  DPPC  H10R  4357   0.090000   1.008000
 4358       HAL2    34  DPPC  H10S  4358   0.090000   1.008000
 4359       CTL2    34  DPPC  C211  4359  -0.180000  12.011000
 4360       HAL2    34  DPPC  H11R  4360   0.090000   1.008000
 4361       HAL2    34  DPPC  H11S  4361   0.090000   1.008000
 4362       CTL2    34  DPPC  C212  4362  -0.180000  12.011000
 4363       HAL2    34  DPPC  H12R  4363   0.090000   1.008000
 4364       HAL2    34  DPPC  H12S  4364   0.090000   1.008000
 4365       CTL2    34  DPPC  C213  4365  -0.180000  12.011000
 4366       HAL2    34  DPPC  H13R  4366   0.090000   1.008000
 4367       HAL2    34  DPPC  H13S  4367   0.090000   1.008000
 4368       CTL2    34  DPPC  C214  4368  -0.180000  12.011000
 4369       HAL2    34  DPPC  H14R  4369   0.090000   1.008000
 4370       HAL2    34  DPPC  H14S  4370   0.090000   1.008000
 4371       CTL2    34  DPPC  C215  4371  -0.180000  12.011000
 4372       HAL2    34  DPPC  H15R  4372   0.090000   1.008000
 4373       HAL2    34  DPPC  H15S  4373   0.090000   1.008000
 4374       CTL3    34  DPPC  C216  4374  -0.270000  12.011000
 4375       HAL3    34  DPPC  H16R  4375   0.090000   1.008000
 4376       HAL3    34  DPPC  H16S  4376   0.090000   1.008000
 4377       HAL3    34  DPPC  H16T  4377   0.090000   1.008000
 4378       CTL2    34  DPPC   C33  4378  -0.180000  12.011000
 4379       HAL2    34  DPPC   H3X  4379   0.090000   1.008000
 4380       HAL2    34  DPPC   H3Y  4380   0.090000   1.008000
 4381       CTL2    34  DPPC   C34  4381  -0.180000  12.011000
 4382       HAL2    34  DPPC   H4X  4382   0.090000   1.008000
 4383       HAL2    34  DPPC   H4Y  4383   0.090000   1.008000
 4384       CTL2    34  DPPC   C35  4384  -0.180000  12.011000
 4385       HAL2    34  DPPC   H5X  4385   0.090000   1.008000
 4386       HAL2    34  DPPC   H5Y  4386   0.090000   1.008000
 4387       CTL2    34  DPPC   C36  4387  -0.180000  12.011000
 4388       HAL2    34  DPPC   H6X  4388   0.090000   1.008000
 4389       HAL2    34  DPPC   H6Y  4389   0.090000   1.008000
 4390       CTL2    34  DPPC   C37  4390  -0.180000  12.011000
 4391       HAL2    34  DPPC   H7X  4391   0.090000   1.008000
 4392       HAL2    34  DPPC   H7Y  4392   0.090000   1.008000
 4393       CTL2    34  DPPC   C38  4393  -0.180000  12.011000
 4394       HAL2    34  DPPC   H8X  4394   0.090000   1.008000
 4395       HAL2    34  DPPC   H8Y  4395   0.090000   1.008000
 4396       CTL2    34  DPPC   C39  4396  -0.180000  12.011000
 4397       HAL2    34  DPPC   H9X  4397   0.090000   1.008000
 4398       HAL2    34  DPPC   H9Y  4398   0.090000   1.008000
 4399       CTL2    34  DPPC  C310  4399  -0.180000  12.011000
 4400       HAL2    34  DPPC  H10X  4400   0.090000   1.008000
 4401       HAL2    34  DPPC  H10Y  4401   0.090000   1.008000
 4402       CTL2    34  DPPC  C311  4402  -0.180000  12.011000
 4403       HAL2    34  DPPC  H11X  4403   0.090000   1.008000
 4404       HAL2    34  DPPC  H11Y  4404   0.090000   1.008000
 4405       CTL2    34  DPPC  C312  4405  -0.180000  12.011000
 4406       HAL2    34  DPPC  H12X  4406   0.090000   1.008000
 4407       HAL2    34  DPPC  H12Y  4407   0.090000   1.008000
 4408       CTL2    34  DPPC  C313  4408  -0.180000  12.011000
 4409       HAL2    34  DPPC  H13X  4409   0.090000   1.008000
 4410       HAL2    34  DPPC  H13Y  4410   0.090000   1.008000
 4411       CTL2    34  DPPC  C314  4411  -0.180000  12.011000
 4412       HAL2    34  DPPC  H14X  4412   0.090000   1.008000
 4413       HAL2    34  DPPC  H14Y  4413   0.090000   1.008000
 4414       CTL2    34  DPPC  C315  4414  -0.180000  12.011000
 4415       HAL2    34  DPPC  H15X  4415   0.090000   1.008000
 4416       HAL2    34  DPPC  H15Y  4416   0.090000   1.008000
 4417       CTL3    34  DPPC  C316  4417  -0.270000  12.011000
 4418       HAL3    34  DPPC  H16X  4418   0.090000   1.008000
 4419       HAL3    34  DPPC  H16Y  4419   0.090000   1.008000
 4420       HAL3    34  DPPC  H16Z  4420   0.090000   1.008000
 4421        NTL    35  DPPC     N  4421  -0.600000  14.007000
 4422       CTL5    35  DPPC   C13  4422  -0.350000  12.011000
 4423         HL    35  DPPC  H13A  4423   0.250000   1.008000
 4424         HL    35  DPPC  H13B  4424   0.250000   1.008000
 4425         HL    35  DPPC  H13C  4425   0.250000   1.008000
 4426       CTL5    35  DPPC   C14  4426  -0.350000  12.011000
 4427         HL    35  DPPC  H14A  4427   0.250000   1.008000
 4428         HL    35  DPPC  H14B  4428   0.250000   1.008000
 4429         HL    35  DPPC  H14C  4429   0.250000   1.008000
 4430       CTL5    35  DPPC   C15  4430  -0.350000  12.011000
 4431         HL    35  DPPC  H15A  4431   0.250000   1.008000
 4432         HL    35  DPPC  H15B  4432   0.250000   1.008000
 4433         HL    35  DPPC  H15C  4433   0.250000   1.008000
 4434       CTL2    35  DPPC   C12  4434  -0.100000  12.011000
 4435         HL    35  DPPC  H12A  4435   0.250000   1.008000
 4436         HL    35  DPPC  H12B  4436   0.250000   1.008000
 4437       CTL2    35  DPPC   C11  4437  -0.080000  12.011000
 4438       HAL2    35  DPPC  H11A  4438   0.090000   1.008000
 4439       HAL2    35  DPPC  H11B  4439   0.090000   1.008000
 4440         PL    35  DPPC     P  4440   1.500000  30.974001
 4441        O2L    35  DPPC   O13  4441  -0.780000  15.999400
 4442        O2L    35  DPPC   O14  4442  -0.780000  15.999400
 4443       OSLP    35  DPPC   O11  4443  -0.570000  15.999400
 4444       OSLP    35  DPPC   O12  4444  -0.570000  15.999400
 4445       CTL2    35  DPPC    C1  4445  -0.080000  12.011000
 4446       HAL2    35  DPPC    HA  4446   0.090000   1.008000
 4447       HAL2    35  DPPC    HB  4447   0.090000   1.008000
 4448       CTL1    35  DPPC    C2  4448   0.170000  12.011000
 4449       HAL1    35  DPPC    HS  4449   0.090000   1.008000
 4450        OSL    35  DPPC   O21  4450  -0.490000  15.999400
 4451         CL    35  DPPC   C21  4451   0.900000  12.011000
 4452        OBL    35  DPPC   O22  4452  -0.630000  15.999400
 4453       CTL2    35  DPPC   C22  4453  -0.220000  12.011000
 4454       HAL2    35  DPPC   H2R  4454   0.090000   1.008000
 4455       HAL2    35  DPPC   H2S  4455   0.090000   1.008000
 4456       CTL2    35  DPPC    C3  4456   0.080000  12.011000
 4457       HAL2    35  DPPC    HX  4457   0.090000   1.008000
 4458       HAL2    35  DPPC    HY  4458   0.090000   1.008000
 4459        OSL    35  DPPC   O31  4459  -0.490000  15.999400
 4460         CL    35  DPPC   C31  4460   0.900000  12.011000
 4461        OBL    35  DPPC   O32  4461  -0.630000  15.999400
 4462       CTL2    35  DPPC   C32  4462  -0.220000  12.011000
 4463       HAL2    35  DPPC   H2X  4463   0.090000   1.008000
 4464       HAL2    35  DPPC   H2Y  4464   0.090000   1.008000
 4465       CTL2    35  DPPC   C23  4465  -0.180000  12.011000
 4466       HAL2    35  DPPC   H3R  4466   0.090000   1.008000
 4467       HAL2    35  DPPC   H3S  4467   0.090000   1.008000
 4468       CTL2    35  DPPC   C24  4468  -0.180000  12.011000
 4469       HAL2    35  DPPC   H4R  4469   0.090000   1.008000
 4470       HAL2    35  DPPC   H4S  4470   0.090000   1.008000
 4471       CTL2    35  DPPC   C25  4471  -0.180000  12.011000
 4472       HAL2    35  DPPC   H5R  4472   0.090000   1.008000
 4473       HAL2    35  DPPC   H5S  4473   0.090000   1.008000
 4474       CTL2    35  DPPC   C26  4474  -0.180000  12.011000
 4475       HAL2    35  DPPC   H6R  4475   0.090000   1.008000
 4476       HAL2    35  DPPC   H6S  4476   0.090000   1.008000
 4477       CTL2    35  DPPC   C27  4477  -0.180000  12.011000
 4478       HAL2    35  DPPC   H7R  4478   0.090000   1.008000
 4479       HAL2    35  DPPC   H7S  4479   0.090000   1.008000
 4480       CTL2    35  DPPC   C28  4480  -0.180000  12.011000
 4481       HAL2    35  DPPC   H8R  4481   0.090000   1.008000
 4482       HAL2    35  DPPC   H8S  4482   0.090000   1.008000
 4483       CTL2    35  DPPC   C29  4483  -0.180000  12.011000
 4484       HAL2    35  DPPC   H9R  4484   0.090000   1.008000
 4485       HAL2    35  DPPC   H9S  4485   0.090000   1.008000
 4486       CTL2    35  DPPC  C210  4486  -0.180000  12.011000
 4487       HAL2    35  DPPC  H10R  4487   0.090000   1.008000
 4488       HAL2    35  DPPC  H10S  4488   0.090000   1.008000
 4489       CTL2    35  DPPC  C211  4489  -0.180000  12.011000
 4490       HAL2    35  DPPC  H11R  4490   0.090000   1.008000
 4491       HAL2    35  DPPC  H11S  4491   0.090000   1.008000
 4492       CTL2    35  DPPC  C212  4492  -0.180000  12.011000
 4493       HAL2    35  DPPC  H12R  4493   0.090000   1.008000
 4494       HAL2    35  DPPC  H12S  4494   0.090000   1.008000
 4495       CTL2    35  DPPC  C213  4495  -0.180000  12.011000
 4496       HAL2    35  DPPC  H13R  4496   0.090000   1.008000
 4497       HAL2    35  DPPC  H13S  4497   0.090000   1.008000
 4498       CTL2    35  DPPC  C214  4498  -0.180000  12.011000
 4499       HAL2    35  DPPC  H14R  4499   0.090000   1.008000
 4500       HAL2    35  DPPC  H14S  4500   0.090000   1.008000
 4501       CTL2    35  DPPC  C215  4501  -0.180000  12.011000
 4502       HAL2    35  DPPC  H15R  4502   0.090000   1.008000
 4503       HAL2    35  DPPC  H15S  4503   0.090000   1.008000
 4504       CTL3    35  DPPC  C216  4504  -0.270000  12.011000
 4505       HAL3    35  DPPC  H16R  4505   0.090000   1.008000
 4506       HAL3    35  DPPC  H16S  4506   0.090000   1.008000
 4507       HAL3    35  DPPC  H16T  4507   0.090000   1.008000
 4508       CTL2    35  DPPC   C33  4508  -0.180000  12.011000
 4509       HAL2    35  DPPC   H3X  4509   0.090000   1.008000
 4510       HAL2    35  DPPC   H3Y  4510   0.090000   1.008000
 4511       CTL2    35  DPPC   C34  4511  -0.180000  12.011000
 4512       HAL2    35  DPPC   H4X  4512   0.090000   1.008000
 4513       HAL2    35  DPPC   H4Y  4513   0.090000   1.008000
 4514       CTL2    35  DPPC   C35  4514  -0.180000  12.011000
 4515       HAL2    35  DPPC   H5X  4515   0.090000   1.008000
 4516       HAL2    35  DPPC   H5Y  4516   0.090000   1.008000
 4517       CTL2    35  DPPC   C36  4517  -0.180000  12.011000
 4518       HAL2    35  DPPC   H6X  4518   0.090000   1.008000
 4519       HAL2    35  DPPC   H6Y  4519   0.090000   1.008000
 4520       CTL2    35  DPPC   C37  4520  -0.180000  12.011000
 4521       HAL2    35  DPPC   H7X  4521   0.090000   1.008000
 4522       HAL2    35  DPPC   H7Y  4522   0.090000   1.008000
 4523       CTL2    35  DPPC   C38  4523  -0.180000  12.011000
 4524       HAL2    35  DPPC   H8X  4524   0.090000   1.008000
 4525       HAL2    35  DPPC   H8Y  4525   0.090000   1.008000
 4526       CTL2    35  DPPC   C39  4526  -0.180000  12.011000
 4527       HAL2    35  DPPC   H9X  4527   0.090000   1.008000
 4528       HAL2    35  DPPC   H9Y  4528   0.090000   1.008000
 4529       CTL2    35  DPPC  C310  4529  -0.180000  12.011000
 4530       HAL2    35  DPPC  H10X  4530   0.090000   1.008000
 4531       HAL2    35  DPPC  H10Y  4531   0.090000   1.008000
 4532       CTL2    35  DPPC  C311  4532  -0.180000  12.011000
 4533       HAL2    35  DPPC  H11X  4533   0.090000   1.008000
 4534       HAL2    35  DPPC  H11Y  4534   0.090000   1.008000
 4535       CTL2    35  DPPC  C312  4535  -0.180000  12.011000
 4536       HAL2    35  DPPC  H12X  4536   0.090000   1.008000
 4537       HAL2    35  DPPC  H12Y  4537   0.090000   1.008000
 4538       CTL2    35  DPPC  C313  4538  -0.180000  12.011000
 4539       HAL2    35  DPPC  H13X  4539   0.090000   1.008000
 4540       HAL2    35  DPPC  H13Y  4540   0.090000   1.008000
 4541       CTL2    35  DPPC  C314  4541  -0.180000  12.011000
 4542       HAL2    35  DPPC  H14X  4542   0.090000   1.008000
 4543       HAL2    35  DPPC  H14Y  4543   0.090000   1.008000
 4544       CTL2    35  DPPC  C315  4544  -0.180000  12.011000
 4545       HAL2    35  DPPC  H15X  4545   0.090000   1.008000
 4546       HAL2    35  DPPC  H15Y  4546   0.090000   1.008000
 4547       CTL3    35  DPPC  C316  4547  -0.270000  12.011000
 4548       HAL3    35  DPPC  H16X  4548   0.090000   1.008000
 4549       HAL3    35  DPPC  H16Y  4549   0.090000   1.008000
 4550       HAL3    35  DPPC  H16Z  4550   0.090000   1.008000
 4551        NTL    36  DPPC     N  4551  -0.600000  14.007000
 4552       CTL5    36  DPPC   C13  4552  -0.350000  12.011000
 4553         HL    36  DPPC  H13A  4553   0.250000   1.008000
 4554         HL    36  DPPC  H13B  4554   0.250000   1.008000
 4555         HL    36  DPPC  H13C  4555   0.250000   1.008000
 4556       CTL5    36  DPPC   C14  4556  -0.350000  12.011000
 4557         HL    36  DPPC  H14A  4557   0.250000   1.008000
 4558         HL    36  DPPC  H14B  4558   0.250000   1.008000
 4559         HL    36  DPPC  H14C  4559   0.250000   1.008000
 4560       CTL5    36  DPPC   C15  4560  -0.350000  12.011000
 4561         HL    36  DPPC  H15A  4561   0.250000   1.008000
 4562         HL    36  DPPC  H15B  4562   0.250000   1.008000
 4563         HL    36  DPPC  H15C  4563   0.250000   1.008000
 4564       CTL2    36  DPPC   C12  4564  -0.100000  12.011000
 4565         HL    36  DPPC  H12A  4565   0.250000   1.008000
 4566         HL    36  DPPC  H12B  4566   0.250000   1.008000
 4567       CTL2    36  DPPC   C11  4567  -0.080000  12.011000
 4568       HAL2    36  DPPC  H11A  4568   0.090000   1.008000
 4569       HAL2    36  DPPC  H11B  4569   0.090000   1.008000
 4570         PL    36  DPPC     P  4570   1.500000  30.974001
 4571        O2L    36  DPPC   O13  4571  -0.780000  15.999400
 4572        O2L    36  DPPC   O14  4572  -0.780000  15.999400
 4573       OSLP    36  DPPC   O11  4573  -0.570000  15.999400
 4574       OSLP    36  DPPC   O12  4574  -0.570000  15.999400
 4575       CTL2    36  DPPC    C1  4575  -0.080000  12.011000
 4576       HAL2    36  DPPC    HA  4576   0.090000   1.008000
 4577       HAL2    36  DPPC    HB  4577   0.090000   1.008000
 4578       CTL1    36  DPPC    C2  4578   0.170000  12.011000
 4579       HAL1    36  DPPC    HS  4579   0.090000   1.008000
 4580        OSL    36  DPPC   O21  4580  -0.490000  15.999400
 4581         CL    36  DPPC   C21  4581   0.900000  12.011000
 4582        OBL    36  DPPC   O22  4582  -0.630000  15.999400
 4583       CTL2    36  DPPC   C22  4583  -0.220000  12.011000
 4584       HAL2    36  DPPC   H2R  4584   0.090000   1.008000
 4585       HAL2    36  DPPC   H2S  4585   0.090000   1.008000
 4586       CTL2    36  DPPC    C3  4586   0.080000  12.011000
 4587       HAL2    36  DPPC    HX  4587   0.090000   1.008000
 4588       HAL2    36  DPPC    HY  4588   0.090000   1.008000
 4589        OSL    36  DPPC   O31  4589  -0.490000  15.999400
 4590         CL    36  DPPC   C31  4590   0.900000  12.011000
 4591        OBL    36  DPPC   O32  4591  -0.630000  15.999400
 4592       CTL2    36  DPPC   C32  4592  -0.220000  12.011000
 4593       HAL2    36  DPPC   H2X  4593   0.090000   1.008000
 4594       HAL2    36  DPPC   H2Y  4594   0.090000   1.008000
 4595       CTL2    36  DPPC   C23  4595  -0.180000  12.011000
 4596       HAL2    36  DPPC   H3R  4596   0.090000   1.008000
 4597       HAL2    36  DPPC   H3S  4597   0.090000   1.008000
 4598       CTL2    36  DPPC   C24  4598  -0.180000  12.011000
 4599       HAL2    36  DPPC   H4R  4599   0.090000   1.008000
 4600       HAL2    36  DPPC   H4S  4600   0.090000   1.008000
 4601       CTL2    36  DPPC   C25  4601  -0.180000  12.011000
 4602       HAL2    36  DPPC   H5R  4602   0.090000   1.008000
 4603       HAL2    36  DPPC   H5S  4603   0.090000   1.008000
 4604       CTL2    36  DPPC   C26  4604  -0.180000  12.011000
 4605       HAL2    36  DPPC   H6R  4605   0.090000   1.008000
 4606       HAL2    36  DPPC   H6S  4606   0.090000   1.008000
 4607       CTL2    36  DPPC   C27  4607  -0.180000  12.011000
 4608       HAL2    36  DPPC   H7R  4608   0.090000   1.008000
 4609       HAL2    36  DPPC   H7S  4609   0.090000   1.008000
 4610       CTL2    36  DPPC   C28  4610  -0.180000  12.011000
 4611       HAL2    36  DPPC   H8R  4611   0.090000   1.008000
 4612       HAL2    36  DPPC   H8S  4612   0.090000   1.008000
 4613       CTL2    36  DPPC   C29  4613  -0.180000  12.011000
 4614       HAL2    36  DPPC   H9R  4614   0.090000   1.008000
 4615       HAL2    36  DPPC   H9S  4615   0.090000   1.008000
 4616       CTL2    36  DPPC  C210  4616  -0.180000  12.011000
 4617       HAL2    36  DPPC  H10R  4617   0.090000   1.008000
 4618       HAL2    36  DPPC  H10S  4618   0.090000   1.008000
 4619       CTL2    36  DPPC  C211  4619  -0.180000  12.011000
 4620       HAL2    36  DPPC  H11R  4620   0.090000   1.008000
 4621       HAL2    36  DPPC  H11S  4621   0.090000   1.008000
 4622       CTL2    36  DPPC  C212  4622  -0.180000  12.011000
 4623       HAL2    36  DPPC  H12R  4623   0.090000   1.008000
 4624       HAL2    36  DPPC  H12S  4624   0.090000   1.008000
 4625       CTL2    36  DPPC  C213  4625  -0.180000  12.011000
 4626       HAL2    36  DPPC  H13R  4626   0.090000   1.008000
 4627       HAL2    36  DPPC  H13S  4627   0.090000   1.008000
 4628       CTL2    36  DPPC  C214  4628  -0.180000  12.011000
 4629       HAL2    36  DPPC  H14R  4629   0.090000   1.008000
 4630       HAL2    36  DPPC  H14S  4630   0.090000   1.008000
 4631       CTL2    36  DPPC  C215  4631  -0.180000  12.011000
 4632       HAL2    36  DPPC  H15R  4632   0.090000   1.008000
 4633       HAL2    36  DPPC  H15S  4633   0.090000   1.008000
 4634       CTL3    36  DPPC  C216  4634  -0.270000  12.011000
 4635       HAL3    36  DPPC  H16R  4635   0.090000   1.008000
 4636       HAL3    36  DPPC  H16S  4636   0.090000   1.008000
 4637       HAL3    36  DPPC  H16T  4637   0.090000   1.008000
 4638       CTL2    36  DPPC   C33  4638  -0.180000  12.011000
 4639       HAL2    36  DPPC   H3X  4639   0.090000   1.008000
 4640       HAL2    36  DPPC   H3Y  4640   0.090000   1.008000
 4641       CTL2    36  DPPC   C34  4641  -0.180000  12.011000
 4642       HAL2    36  DPPC   H4X  4642   0.090000   1.008000
 4643       HAL2    36  DPPC   H4Y  4643   0.090000   1.008000
 4644       CTL2    36  DPPC   C35  4644  -0.180000  12.011000
 4645       HAL2    36  DPPC   H5X  4645   0.090000   1.008000
 4646       HAL2    36  DPPC   H5Y  4646   0.090000   1.008000
 4647       CTL2    36  DPPC   C36  4647  -0.180000  12.011000
 4648       HAL2    36  DPPC   H6X  4648   0.090000   1.008000
 4649       HAL2    36  DPPC   H6Y  4649   0.090000   1.008000
 4650       CTL2    36  DPPC   C37  4650  -0.180000  12.011000
 4651       HAL2    36  DPPC   H7X  4651   0.090000   1.008000
 4652       HAL2    36  DPPC   H7Y  4652   0.090000   1.008000
 4653       CTL2    36  DPPC   C38  4653  -0.180000  12.011000
 4654       HAL2    36  DPPC   H8X  4654   0.090000   1.008000
 4655       HAL2    36  DPPC   H8Y  4655   0.090000   1.008000
 4656       CTL2    36  DPPC   C39  4656  -0.180000  12.011000
 4657       HAL2    36  DPPC   H9X  4657   0.090000   1.008000
 4658       HAL2    36  DPPC   H9Y  4658   0.090000   1.008000
 4659       CTL2    36  DPPC  C310  4659  -0.180000  12.011000
 4660       HAL2    36  DPPC  H10X  4660   0.090000   1.008000
 4661       HAL2    36  DPPC  H10Y  4661   0.090000   1.008000
 4662       CTL2    36  DPPC  C311  4662  -0.180000  12.011000
 4663       HAL2    36  DPPC  H11X  4663   0.090000   1.008000
 4664       HAL2    36  DPPC  H11Y  4664   0.090000   1.008000
 4665       CTL2    36  DPPC  C312  4665  -0.180000  12.011000
 4666       HAL2    36  DPPC  H12X  4666   0.090000   1.008000
 4667       HAL2    36  DPPC  H12Y  4667   0.090000   1.008000
 4668       CTL2    36  DPPC  C313  4668  -0.180000  12.011000
 4669       HAL2    36  DPPC  H13X  4669   0.090000   1.008000
 4670       HAL2    36  DPPC  H13Y  4670   0.090000   1.008000
 4671       CTL2    36  DPPC  C314  4671  -0.180000  12.011000
 4672       HAL2    36  DPPC  H14X  4672   0.090000   1.008000
 4673       HAL2    36  DPPC  H14Y  4673   0.090000   1.008000
 4674       CTL2    36  DPPC  C315  4674  -0.180000  12.011000
 4675       HAL2    36  DPPC  H15X  4675   0.090000   1.008000
 4676       HAL2    36  DPPC  H15Y  4676   0.090000   1.008000
 4677       CTL3    36  DPPC  C316  4677  -0.270000  12.011000
 4678       HAL3    36  DPPC  H16X  4678   0.090000   1.008000
 4679       HAL3    36  DPPC  H16Y  4679   0.090000   1.008000
 4680       HAL3    36  DPPC  H16Z  4680   0.090000   1.008000
 4681        NTL    37  DPPC     N  4681  -0.600000  14.007000
 4682       CTL5    37  DPPC   C13  4682  -0.350000  12.011000
 4683         HL    37  DPPC  H13A  4683   0.250000   1.008000
 4684         HL    37  DPPC  H13B  4684   0.250000   1.008000
 4685         HL    37  DPPC  H13C  4685   0.250000   1.008000
 4686       CTL5    37  DPPC   C14  4686  -0.350000  12.011000
 4687         HL    37  DPPC  H14A  4687   0.250000   1.008000
 4688         HL    37  DPPC  H14B  4688   0.250000   1.008000
 4689         HL    37  DPPC  H14C  4689   0.250000   1.008000
 4690       CTL5    37  DPPC   C15  4690  -0.350000  12.011000
 4691         HL    37  DPPC  H15A  4691   0.250000   1.008000
 4692         HL    37  DPPC  H15B  4692   0.250000   1.008000
 4693         HL    37  DPPC  H15C  4693   0.250000   1.008000
 4694       CTL2    37  DPPC   C12  4694  -0.100000  12.011000
 4695         HL    37  DPPC  H12A  4695   0.250000   1.008000
 4696         HL    37  DPPC  H12B  4696   0.250000   1.008000
 4697       CTL2    37  DPPC   C11  4697  -0.080000  12.011000
 4698       HAL2    37  DPPC  H11A  4698   0.090000   1.008000
 4699       HAL2    37  DPPC  H11B  4699   0.090000   1.008000
 4700         PL    37  DPPC     P  4700   1.500000  30.974001
 4701        O2L    37  DPPC   O13  4701  -0.780000  15.999400
 4702        O2L    37  DPPC   O14  4702  -0.780000  15.999400
 4703       OSLP    37  DPPC   O11  4703  -0.570000  15.999400
 4704       OSLP    37  DPPC   O12  4704  -0.570000  15.999400
 4705       CTL2    37  DPPC    C1  4705  -0.080000  12.011000
 4706       HAL2    37  DPPC    HA  4706   0.090000   1.008000
 4707       HAL2    37  DPPC    HB  4707   0.090000   1.008000
 4708       CTL1    37  DPPC    C2  4708   0.170000  12.011000
 4709       HAL1    37  DPPC    HS  4709   0.090000   1.008000
 4710        OSL    37  DPPC   O21  4710  -0.490000  15.999400
 4711         CL    37  DPPC   C21  4711   0.900000  12.011000
 4712        OBL    37  DPPC   O22  4712  -0.630000  15.999400
 4713       CTL2    37  DPPC   C22  4713  -0.220000  12.011000
 4714       HAL2    37  DPPC   H2R  4714   0.090000   1.008000
 4715       HAL2    37  DPPC   H2S  4715   0.090000   1.008000
 4716       CTL2    37  DPPC    C3  4716   0.080000  12.011000
 4717       HAL2    37  DPPC    HX  4717   0.090000   1.008000
 4718       HAL2    37  DPPC    HY  4718   0.090000   1.008000
 4719        OSL    37  DPPC   O31  4719  -0.490000  15.999400
 4720         CL    37  DPPC   C31  4720   0.900000  12.011000
 4721        OBL    37  DPPC   O32  4721  -0.630000  15.999400
 4722       CTL2    37  DPPC   C32  4722  -0.220000  12.011000
 4723       HAL2    37  DPPC   H2X  4723   0.090000   1.008000
 4724       HAL2    37  DPPC   H2Y  4724   0.090000   1.008000
 4725       CTL2    37  DPPC   C23  4725  -0.180000  12.011000
 4726       HAL2    37  DPPC   H3R  4726   0.090000   1.008000
 4727       HAL2    37  DPPC   H3S  4727   0.090000   1.008000
 4728       CTL2    37  DPPC   C24  4728  -0.180000  12.011000
 4729       HAL2    37  DPPC   H4R  4729   0.090000   1.008000
 4730       HAL2    37  DPPC   H4S  4730   0.090000   1.008000
 4731       CTL2    37  DPPC   C25  4731  -0.180000  12.011000
 4732       HAL2    37  DPPC   H5R  4732   0.090000   1.008000
 4733       HAL2    37  DPPC   H5S  4733   0.090000   1.008000
 4734       CTL2    37  DPPC   C26  4734  -0.180000  12.011000
 4735       HAL2    37  DPPC   H6R  4735   0.090000   1.008000
 4736       HAL2    37  DPPC   H6S  4736   0.090000   1.008000
 4737       CTL2    37  DPPC   C27  4737  -0.180000  12.011000
 4738       HAL2    37  DPPC   H7R  4738   0.090000   1.008000
 4739       HAL2    37  DPPC   H7S  4739   0.090000   1.008000
 4740       CTL2    37  DPPC   C28  4740  -0.180000  12.011000
 4741       HAL2    37  DPPC   H8R  4741   0.090000   1.008000
 4742       HAL2    37  DPPC   H8S  4742   0.090000   1.008000
 4743       CTL2    37  DPPC   C29  4743  -0.180000  12.011000
 4744       HAL2    37  DPPC   H9R  4744   0.090000   1.008000
 4745       HAL2    37  DPPC   H9S  4745   0.090000   1.008000
 4746       CTL2    37  DPPC  C210  4746  -0.180000  12.011000
 4747       HAL2    37  DPPC  H10R  4747   0.090000   1.008000
 4748       HAL2    37  DPPC  H10S  4748   0.090000   1.008000
 4749       CTL2    37  DPPC  C211  4749  -0.180000  12.011000
 4750       HAL2    37  DPPC  H11R  4750   0.090000   1.008000
 4751       HAL2    37  DPPC  H11S  4751   0.090000   1.008000
 4752       CTL2    37  DPPC  C212  4752  -0.180000  12.011000
 4753       HAL2    37  DPPC  H12R  4753   0.090000   1.008000
 4754       HAL2    37  DPPC  H12S  4754   0.090000   1.008000
 4755       CTL2    37  DPPC  C213  4755  -0.180000  12.011000
 4756       HAL2    37  DPPC  H13R  4756   0.090000   1.008000
 4757       HAL2    37  DPPC  H13S  4757   0.090000   1.008000
 4758       CTL2    37  DPPC  C214  4758  -0.180000  12.011000
 4759       HAL2    37  DPPC  H14R  4759   0.090000   1.008000
 4760       HAL2    37  DPPC  H14S  4760   0.090000   1.008000
 4761       CTL2    37  DPPC  C215  4761  -0.180000  12.011000
 4762       HAL2    37  DPPC  H15R  4762   0.090000   1.008000
 4763       HAL2    37  DPPC  H15S  4763   0.090000   1.008000
 4764       CTL3    37  DPPC  C216  4764  -0.270000  12.011000
 4765       HAL3    37  DPPC  H16R  4765   0.090000   1.008000
 4766       HAL3    37  DPPC  H16S  4766   0.090000   1.008000
 4767       HAL3    37  DPPC  H16T  4767   0.090000   1.008000
 4768       CTL2    37  DPPC   C33  4768  -0.180000  12.011000
 4769       HAL2    37  DPPC   H3X  4769   0.090000   1.008000
 4770       HAL2    37  DPPC   H3Y  4770   0.090000   1.008000
 4771       CTL2    37  DPPC   C34  4771  -0.180000  12.011000
 4772       HAL2    37  DPPC   H4X  4772   0.090000   1.008000
 4773       HAL2    37  DPPC   H4Y  4773   0.090000   1.008000
 4774       CTL2    37  DPPC   C35  4774  -0.180000  12.011000
 4775       HAL2    37  DPPC   H5X  4775   0.090000   1.008000
 4776       HAL2    37  DPPC   H5Y  4776   0.090000   1.008000
 4777       CTL2    37  DPPC   C36  4777  -0.180000  12.011000
 4778       HAL2    37  DPPC   H6X  4778   0.090000   1.008000
 4779       HAL2    37  DPPC   H6Y  4779   0.090000   1.008000
 4780       CTL2    37  DPPC   C37  4780  -0.180000  12.011000
 4781       HAL2    37  DPPC   H7X  4781   0.090000   1.008000
 4782       HAL2    37  DPPC   H7Y  4782   0.090000   1.008000
 4783       CTL2    37  DPPC   C38  4783  -0.180000  12.011000
 4784       HAL2    37  DPPC   H8X  4784   0.090000   1.008000
 4785       HAL2    37  DPPC   H8Y  4785   0.090000   1.008000
 4786       CTL2    37  DPPC   C39  4786  -0.180000  12.011000
 4787       HAL2    37  DPPC   H9X  4787   0.090000   1.008000
 4788       HAL2    37  DPPC   H9Y  4788   0.090000   1.008000
 4789       CTL2    37  DPPC  C310  4789  -0.180000  12.011000
 4790       HAL2    37  DPPC  H10X  4790   0.090000   1.008000
 4791       HAL2    37  DPPC  H10Y  4791   0.090000   1.008000
 4792       CTL2    37  DPPC  C311  4792  -0.180000  12.011000
 4793       HAL2    37  DPPC  H11X  4793   0.090000   1.008000
 4794       HAL2    37  DPPC  H11Y  4794   0.090000   1.008000
 4795       CTL2    37  DPPC  C312  4795  -0.180000  12.011000
 4796       HAL2    37  DPPC  H12X  4796   0.090000   1.008000
 4797       HAL2    37  DPPC  H12Y  4797   0.090000   1.008000
 4798       CTL2    37  DPPC  C313  4798  -0.180000  12.011000
 4799       HAL2    37  DPPC  H13X  4799   0.090000   1.008000
 4800       HAL2    37  DPPC  H13Y  4800   0.090000   1.008000
 4801       CTL2    37  DPPC  C314  4801  -0.180000  12.011000
 4802       HAL2    37  DPPC  H14X  4802   0.090000   1.008000
 4803       HAL2    37  DPPC  H14Y  4803   0.090000   1.008000
 4804       CTL2    37  DPPC  C315  4804  -0.180000  12.011000
 4805       HAL2    37  DPPC  H15X  4805   0.090000   1.008000
 4806       HAL2    37  DPPC  H15Y  4806   0.090000   1.008000
 4807       CTL3    37  DPPC  C316  4807  -0.270000  12.011000
 4808       HAL3    37  DPPC  H16X  4808   0.090000   1.008000
 4809       HAL3    37  DPPC  H16Y  4809   0.090000   1.008000
 4810       HAL3    37  DPPC  H16Z  4810   0.090000   1.008000
 4811        NTL    38  DPPC     N  4811  -0.600000  14.007000
 4812       CTL5    38  DPPC   C13  4812  -0.350000  12.011000
 4813         HL    38  DPPC  H13A  4813   0.250000   1.008000
 4814         HL    38  DPPC  H13B  4814   0.250000   1.008000
 4815         HL    38  DPPC  H13C  4815   0.250000   1.008000
 4816       CTL5    38  DPPC   C14  4816  -0.350000  12.011000
 4817         HL    38  DPPC  H14A  4817   0.250000   1.008000
 4818         HL    38  DPPC  H14B  4818   0.250000   1.008000
 4819         HL    38  DPPC  H14C  4819   0.250000   1.008000
 4820       CTL5    38  DPPC   C15  4820  -0.350000  12.011000
 4821         HL    38  DPPC  H15A  4821   0.250000   1.008000
 4822         HL    38  DPPC  H15B  4822   0.250000   1.008000
 4823         HL    38  DPPC  H15C  4823   0.250000   1.008000
 4824       CTL2    38  DPPC   C12  4824  -0.100000  12.011000
 4825         HL    38  DPPC  H12A  4825   0.250000   1.008000
 4826         HL    38  DPPC  H12B  4826   0.250000   1.008000
 4827       CTL2    38  DPPC   C11  4827  -0.080000  12.011000
 4828       HAL2    38  DPPC  H11A  4828   0.090000   1.008000
 4829       HAL2    38  DPPC  H11B  4829   0.090000   1.008000
 4830         PL    38  DPPC     P  4830   1.500000  30.974001
 4831        O2L    38  DPPC   O13  4831  -0.780000  15.999400
 4832        O2L    38  DPPC   O14  4832  -0.780000  15.999400
 4833       OSLP    38  DPPC   O11  4833  -0.570000  15.999400
 4834       OSLP    38  DPPC   O12  4834  -0.570000  15.999400
 4835       CTL2    38  DPPC    C1  4835  -0.080000  12.011000
 4836       HAL2    38  DPPC    HA  4836   0.090000   1.008000
 4837       HAL2    38  DPPC    HB  4837   0.090000   1.008000
 4838       CTL1    38  DPPC    C2  4838   0.170000  12.011000
 4839       HAL1    38  DPPC    HS  4839   0.090000   1.008000
 4840        OSL    38  DPPC   O21  4840  -0.490000  15.999400
 4841         CL    38  DPPC   C21  4841   0.900000  12.011000
 4842        OBL    38  DPPC   O22  4842  -0.630000  15.999400
 4843       CTL2    38  DPPC   C22  4843  -0.220000  12.011000
 4844       HAL2    38  DPPC   H2R  4844   0.090000   1.008000
 4845       HAL2    38  DPPC   H2S  4845   0.090000   1.008000
 4846       CTL2    38  DPPC    C3  4846   0.080000  12.011000
 4847       HAL2    38  DPPC    HX  4847   0.090000   1.008000
 4848       HAL2    38  DPPC    HY  4848   0.090000   1.008000
 4849        OSL    38  DPPC   O31  4849  -0.490000  15.999400
 4850         CL    38  DPPC   C31  4850   0.900000  12.011000
 4851        OBL    38  DPPC   O32  4851  -0.630000  15.999400
 4852       CTL2    38  DPPC   C32  4852  -0.220000  12.011000
 4853       HAL2    38  DPPC   H2X  4853   0.090000   1.008000
 4854       HAL2    38  DPPC   H2Y  4854   0.090000   1.008000
 4855       CTL2    38  DPPC   C23  4855  -0.180000  12.011000
 4856       HAL2    38  DPPC   H3R  4856   0.090000   1.008000
 4857       HAL2    38  DPPC   H3S  4857   0.090000   1.008000
 4858       CTL2    38  DPPC   C24  4858  -0.180000  12.011000
 4859       HAL2    38  DPPC   H4R  4859   0.090000   1.008000
 4860       HAL2    38  DPPC   H4S  4860   0.090000   1.008000
 4861       CTL2    38  DPPC   C25  4861  -0.180000  12.011000
 4862       HAL2    38  DPPC   H5R  4862   0.090000   1.008000
 4863       HAL2    38  DPPC   H5S  4863   0.090000   1.008000
 4864       CTL2    38  DPPC   C26  4864  -0.180000  12.011000
 4865       HAL2    38  DPPC   H6R  4865   0.090000   1.008000
 4866       HAL2    38  DPPC   H6S  4866   0.090000   1.008000
 4867       CTL2    38  DPPC   C27  4867  -0.180000  12.011000
 4868       HAL2    38  DPPC   H7R  4868   0.090000   1.008000
 4869       HAL2    38  DPPC   H7S  4869   0.090000   1.008000
 4870       CTL2    38  DPPC   C28  4870  -0.180000  12.011000
 4871       HAL2    38  DPPC   H8R  4871   0.090000   1.008000
 4872       HAL2    38  DPPC   H8S  4872   0.090000   1.008000
 4873       CTL2    38  DPPC   C29  4873  -0.180000  12.011000
 4874       HAL2    38  DPPC   H9R  4874   0.090000   1.008000
 4875       HAL2    38  DPPC   H9S  4875   0.090000   1.008000
 4876       CTL2    38  DPPC  C210  4876  -0.180000  12.011000
 4877       HAL2    38  DPPC  H10R  4877   0.090000   1.008000
 4878       HAL2    38  DPPC  H10S  4878   0.090000   1.008000
 4879       CTL2    38  DPPC  C211  4879  -0.180000  12.011000
 4880       HAL2    38  DPPC  H11R  4880   0.090000   1.008000
 4881       HAL2    38  DPPC  H11S  4881   0.090000   1.008000
 4882       CTL2    38  DPPC  C212  4882  -0.180000  12.011000
 4883       HAL2    38  DPPC  H12R  4883   0.090000   1.008000
 4884       HAL2    38  DPPC  H12S  4884   0.090000   1.008000
 4885       CTL2    38  DPPC  C213  4885  -0.180000  12.011000
 4886       HAL2    38  DPPC  H13R  4886   0.090000   1.008000
 4887       HAL2    38  DPPC  H13S  4887   0.090000   1.008000
 4888       CTL2    38  DPPC  C214  4888  -0.180000  12.011000
 4889       HAL2    38  DPPC  H14R  4889   0.090000   1.008000
 4890       HAL2    38  DPPC  H14S  4890   0.090000   1.008000
 4891       CTL2    38  DPPC  C215  4891  -0.180000  12.011000
 4892       HAL2    38  DPPC  H15R  4892   0.090000   1.008000
 4893       HAL2    38  DPPC  H15S  4893   0.090000   1.008000
 4894       CTL3    38  DPPC  C216  4894  -0.270000  12.011000
 4895       HAL3    38  DPPC  H16R  4895   0.090000   1.008000
 4896       HAL3    38  DPPC  H16S  4896   0.090000   1.008000
 4897       HAL3    38  DPPC  H16T  4897   0.090000   1.008000
 4898       CTL2    38  DPPC   C33  4898  -0.180000  12.011000
 4899       HAL2    38  DPPC   H3X  4899   0.090000   1.008000
 4900       HAL2    38  DPPC   H3Y  4900   0.090000   1.008000
 4901       CTL2    38  DPPC   C34  4901  -0.180000  12.011000
 4902       HAL2    38  DPPC   H4X  4902   0.090000   1.008000
 4903       HAL2    38  DPPC   H4Y  4903   0.090000   1.008000
 4904       CTL2    38  DPPC   C35  4904  -0.180000  12.011000
 4905       HAL2    38  DPPC   H5X  4905   0.090000   1.008000
 4906       HAL2    38  DPPC   H5Y  4906   0.090000   1.008000
 4907       CTL2    38  DPPC   C36  4907  -0.180000  12.011000
 4908       HAL2    38  DPPC   H6X  4908   0.090000   1.008000
 4909       HAL2    38  DPPC   H6Y  4909   0.090000   1.008000
 4910       CTL2    38  DPPC   C37  4910  -0.180000  12.011000
 4911       HAL2    38  DPPC   H7X  4911   0.090000   1.008000
 4912       HAL2    38  DPPC   H7Y  4912   0.090000   1.008000
 4913       CTL2    38  DPPC   C38  4913  -0.180000  12.011000
 4914       HAL2    38  DPPC   H8X  4914   0.090000   1.008000
 4915       HAL2    38  DPPC   H8Y  4915   0.090000   1.008000
 4916       CTL2    38  DPPC   C39  4916  -0.180000  12.011000
 4917       HAL2    38  DPPC   H9X  4917   0.090000   1.008000
 4918       HAL2    38  DPPC   H9Y  4918   0.090000   1.008000
 4919       CTL2    38  DPPC  C310  4919  -0.180000  12.011000
 4920       HAL2    38  DPPC  H10X  4920   0.090000   1.008000
 4921       HAL2    38  DPPC  H10Y  4921   0.090000   1.008000
 4922       CTL2    38  DPPC  C311  4922  -0.180000  12.011000
 4923       HAL2    38  DPPC  H11X  4923   0.090000   1.008000
 4924       HAL2    38  DPPC  H11Y  4924   0.090000   1.008000
 4925       CTL2    38  DPPC  C312  4925  -0.180000  12.011000
 4926       HAL2    38  DPPC  H12X  4926   0.090000   1.008000
 4927       HAL2    38  DPPC  H12Y  4927   0.090000   1.008000
 4928       CTL2    38  DPPC  C313  4928  -0.180000  12.011000
 4929       HAL2    38  DPPC  H13X  4929   0.090000   1.008000
 4930       HAL2    38  DPPC  H13Y  4930   0.090000   1.008000
 4931       CTL2    38  DPPC  C314  4931  -0.180000  12.011000
 4932       HAL2    38  DPPC  H14X  4932   0.090000   1.008000
 4933       HAL2    38  DPPC  H14Y  4933   0.090000   1.008000
 4934       CTL2    38  DPPC  C315  4934  -0.180000  12.011000
 4935       HAL2    38  DPPC  H15X  4935   0.090000   1.008000
 4936       HAL2    38  DPPC  H15Y  4936   0.090000   1.008000
 4937       CTL3    38  DPPC  C316  4937  -0.270000  12.011000
 4938       HAL3    38  DPPC  H16X  4938   0.090000   1.008000
 4939       HAL3    38  DPPC  H16Y  4939   0.090000   1.008000
 4940       HAL3    38  DPPC  H16Z  4940   0.090000   1.008000
 4941        NTL    39  DPPC     N  4941  -0.600000  14.007000
 4942       CTL5    39  DPPC   C13  4942  -0.350000  12.011000
 4943         HL    39  DPPC  H13A  4943   0.250000   1.008000
 4944         HL    39  DPPC  H13B  4944   0.250000   1.008000
 4945         HL    39  DPPC  H13C  4945   0.250000   1.008000
 4946       CTL5    39  DPPC   C14  4946  -0.350000  12.011000
 4947         HL    39  DPPC  H14A  4947   0.250000   1.008000
 4948         HL    39  DPPC  H14B  4948   0.250000   1.008000
 4949         HL    39  DPPC  H14C  4949   0.250000   1.008000
 4950       CTL5    39  DPPC   C15  4950  -0.350000  12.011000
 4951         HL    39  DPPC  H15A  4951   0.250000   1.008000
 4952         HL    39  DPPC  H15B  4952   0.250000   1.008000
 4953         HL    39  DPPC  H15C  4953   0.250000   1.008000
 4954       CTL2    39  DPPC   C12  4954  -0.100000  12.011000
 4955         HL    39  DPPC  H12A  4955   0.250000   1.008000
 4956         HL    39  DPPC  H12B  4956   0.250000   1.008000
 4957       CTL2    39  DPPC   C11  4957  -0.080000  12.011000
 4958       HAL2    39  DPPC  H11A  4958   0.090000   1.008000
 4959       HAL2    39  DPPC  H11B  4959   0.090000   1.008000
 4960         PL    39  DPPC     P  4960   1.500000  30.974001
 4961        O2L    39  DPPC   O13  4961  -0.780000  15.999400
 4962        O2L    39  DPPC   O14  4962  -0.780000  15.999400
 4963       OSLP    39  DPPC   O11  4963  -0.570000  15.999400
 4964       OSLP    39  DPPC   O12  4964  -0.570000  15.999400
 4965       CTL2    39  DPPC    C1  4965  -0.080000  12.011000
 4966       HAL2    39  DPPC    HA  4966   0.090000   1.008000
 4967       HAL2    39  DPPC    HB  4967   0.090000   1.008000
 4968       CTL1    39  DPPC    C2  4968   0.170000  12.011000
 4969       HAL1    39  DPPC    HS  4969   0.090000   1.008000
 4970        OSL    39  DPPC   O21  4970  -0.490000  15.999400
 4971         CL    39  DPPC   C21  4971   0.900000  12.011000
 4972        OBL    39  DPPC   O22  4972  -0.630000  15.999400
 4973       CTL2    39  DPPC   C22  4973  -0.220000  12.011000
 4974       HAL2    39  DPPC   H2R  4974   0.090000   1.008000
 4975       HAL2    39  DPPC   H2S  4975   0.090000   1.008000
 4976       CTL2    39  DPPC    C3  4976   0.080000  12.011000
 4977       HAL2    39  DPPC    HX  4977   0.090000   1.008000
 4978       HAL2    39  DPPC    HY  4978   0.090000   1.008000
 4979        OSL    39  DPPC   O31  4979  -0.490000  15.999400
 4980         CL    39  DPPC   C31  4980   0.900000  12.011000
 4981        OBL    39  DPPC   O32  4981  -0.630000  15.999400
 4982       CTL2    39  DPPC   C32  4982  -0.220000  12.011000
 4983       HAL2    39  DPPC   H2X  4983   0.090000   1.008000
 4984       HAL2    39  DPPC   H2Y  4984   0.090000   1.008000
 4985       CTL2    39  DPPC   C23  4985  -0.180000  12.011000
 4986       HAL2    39  DPPC   H3R  4986   0.090000   1.008000
 4987       HAL2    39  DPPC   H3S  4987   0.090000   1.008000
 4988       CTL2    39  DPPC   C24  4988  -0.180000  12.011000
 4989       HAL2    39  DPPC   H4R  4989   0.090000   1.008000
 4990       HAL2    39  DPPC   H4S  4990   0.090000   1.008000
 4991       CTL2    39  DPPC   C25  4991  -0.180000  12.011000
 4992       HAL2    39  DPPC   H5R  4992   0.090000   1.008000
 4993       HAL2    39  DPPC   H5S  4993   0.090000   1.008000
 4994       CTL2    39  DPPC   C26  4994  -0.180000  12.011000
 4995       HAL2    39  DPPC   H6R  4995   0.090000   1.008000
 4996       HAL2    39  DPPC   H6S  4996   0.090000   1.008000
 4997       CTL2    39  DPPC   C27  4997  -0.180000  12.011000
 4998       HAL2    39  DPPC   H7R  4998   0.090000   1.008000
 4999       HAL2    39  DPPC   H7S  4999   0.090000   1.008000
 5000       CTL2    39  DPPC   C28  5000  -0.180000  12.011000
 5001       HAL2    39  DPPC   H8R  5001   0.090000   1.008000
 5002       HAL2    39  DPPC   H8S  5002   0.090000   1.008000
 5003       CTL2    39  DPPC   C29  5003  -0.180000  12.011000
 5004       HAL2    39  DPPC   H9R  5004   0.090000   1.008000
 5005       HAL2    39  DPPC   H9S  5005   0.090000   1.008000
 5006       CTL2    39  DPPC  C210  5006  -0.180000  12.011000
 5007       HAL2    39  DPPC  H10R  5007   0.090000   1.008000
 5008       HAL2    39  DPPC  H10S  5008   0.090000   1.008000
 5009       CTL2    39  DPPC  C211  5009  -0.180000  12.011000
 5010       HAL2    39  DPPC  H11R  5010   0.090000   1.008000
 5011       HAL2    39  DPPC  H11S  5011   0.090000   1.008000
 5012       CTL2    39  DPPC  C212  5012  -0.180000  12.011000
 5013       HAL2    39  DPPC  H12R  5013   0.090000   1.008000
 5014       HAL2    39  DPPC  H12S  5014   0.090000   1.008000
 5015       CTL2    39  DPPC  C213  5015  -0.180000  12.011000
 5016       HAL2    39  DPPC  H13R  5016   0.090000   1.008000
 5017       HAL2    39  DPPC  H13S  5017   0.090000   1.008000
 5018       CTL2    39  DPPC  C214  5018  -0.180000  12.011000
 5019       HAL2    39  DPPC  H14R  5019   0.090000   1.008000
 5020       HAL2    39  DPPC  H14S  5020   0.090000   1.008000
 5021       CTL2    39  DPPC  C215  5021  -0.180000  12.011000
 5022       HAL2    39  DPPC  H15R  5022   0.090000   1.008000
 5023       HAL2    39  DPPC  H15S  5023   0.090000   1.008000
 5024       CTL3    39  DPPC  C216  5024  -0.270000  12.011000
 5025       HAL3    39  DPPC  H16R  5025   0.090000   1.008000
 5026       HAL3    39  DPPC  H16S  5026   0.090000   1.008000
 5027       HAL3    39  DPPC  H16T  5027   0.090000   1.008000
 5028       CTL2    39  DPPC   C33  5028  -0.180000  12.011000
 5029       HAL2    39  DPPC   H3X  5029   0.090000   1.008000
 5030       HAL2    39  DPPC   H3Y  5030   0.090000   1.008000
 5031       CTL2    39  DPPC   C34  5031  -0.180000  12.011000
 5032       HAL2    39  DPPC   H4X  5032   0.090000   1.008000
 5033       HAL2    39  DPPC   H4Y  5033   0.090000   1.008000
 5034       CTL2    39  DPPC   C35  5034  -0.180000  12.011000
 5035       HAL2    39  DPPC   H5X  5035   0.090000   1.008000
 5036       HAL2    39  DPPC   H5Y  5036   0.090000   1.008000
 5037       CTL2    39  DPPC   C36  5037  -0.180000  12.011000
 5038       HAL2    39  DPPC   H6X  5038   0.090000   1.008000
 5039       HAL2    39  DPPC   H6Y  5039   0.090000   1.008000
 5040       CTL2    39  DPPC   C37  5040  -0.180000  12.011000
 5041       HAL2    39  DPPC   H7X  5041   0.090000   1.008000
 5042       HAL2    39  DPPC   H7Y  5042   0.090000   1.008000
 5043       CTL2    39  DPPC   C38  5043  -0.180000  12.011000
 5044       HAL2    39  DPPC   H8X  5044   0.090000   1.008000
 5045       HAL2    39  DPPC   H8Y  5045   0.090000   1.008000
 5046       CTL2    39  DPPC   C39  5046  -0.180000  12.011000
 5047       HAL2    39  DPPC   H9X  5047   0.090000   1.008000
 5048       HAL2    39  DPPC   H9Y  5048   0.090000   1.008000
 5049       CTL2    39  DPPC  C310  5049  -0.180000  12.011000
 5050       HAL2    39  DPPC  H10X  5050   0.090000   1.008000
 5051       HAL2    39  DPPC  H10Y  5051   0.090000   1.008000
 5052       CTL2    39  DPPC  C311  5052  -0.180000  12.011000
 5053       HAL2    39  DPPC  H11X  5053   0.090000   1.008000
 5054       HAL2    39  DPPC  H11Y  5054   0.090000   1.008000
 5055       CTL2    39  DPPC  C312  5055  -0.180000  12.011000
 5056       HAL2    39  DPPC  H12X  5056   0.090000   1.008000
 5057       HAL2    39  DPPC  H12Y  5057   0.090000   1.008000
 5058       CTL2    39  DPPC  C313  5058  -0.180000  12.011000
 5059       HAL2    39  DPPC  H13X  5059   0.090000   1.008000
 5060       HAL2    39  DPPC  H13Y  5060   0.090000   1.008000
 5061       CTL2    39  DPPC  C314  5061  -0.180000  12.011000
 5062       HAL2    39  DPPC  H14X  5062   0.090000   1.008000
 5063       HAL2    39  DPPC  H14Y  5063   0.090000   1.008000
 5064       CTL2    39  DPPC  C315  5064  -0.180000  12.011000
 5065       HAL2    39  DPPC  H15X  5065   0.090000   1.008000
 5066       HAL2    39  DPPC  H15Y  5066   0.090000   1.008000
 5067       CTL3    39  DPPC  C316  5067  -0.270000  12.011000
 5068       HAL3    39  DPPC  H16X  5068   0.090000   1.008000
 5069       HAL3    39  DPPC  H16Y  5069   0.090000   1.008000
 5070       HAL3    39  DPPC  H16Z  5070   0.090000   1.008000
 5071        NTL    40  DPPC     N  5071  -0.600000  14.007000
 5072       CTL5    40  DPPC   C13  5072  -0.350000  12.011000
 5073         HL    40  DPPC  H13A  5073   0.250000   1.008000
 5074         HL    40  DPPC  H13B  5074   0.250000   1.008000
 5075         HL    40  DPPC  H13C  5075   0.250000   1.008000
 5076       CTL5    40  DPPC   C14  5076  -0.350000  12.011000
 5077         HL    40  DPPC  H14A  5077   0.250000   1.008000
 5078         HL    40  DPPC  H14B  5078   0.250000   1.008000
 5079         HL    40  DPPC  H14C  5079   0.250000   1.008000
 5080       CTL5    40  DPPC   C15  5080  -0.350000  12.011000
 5081         HL    40  DPPC  H15A  5081   0.250000   1.008000
 5082         HL    40  DPPC  H15B  5082   0.250000   1.008000
 5083         HL    40  DPPC  H15C  5083   0.250000   1.008000
 5084       CTL2    40  DPPC   C12  5084  -0.100000  12.011000
 5085         HL    40  DPPC  H12A  5085   0.250000   1.008000
 5086         HL    40  DPPC  H12B  5086   0.250000   1.008000
 5087       CTL2    40  DPPC   C11  5087  -0.080000  12.011000
 5088       HAL2    40  DPPC  H11A  5088   0.090000   1.008000
 5089       HAL2    40  DPPC  H11B  5089   0.090000   1.008000
 5090         PL    40  DPPC     P  5090   1.500000  30.974001
 5091        O2L    40  DPPC   O13  5091  -0.780000  15.999400
 5092        O2L    40  DPPC   O14  5092  -0.780000  15.999400
 5093       OSLP    40  DPPC   O11  5093  -0.570000  15.999400
 5094       OSLP    40  DPPC   O12  5094  -0.570000  15.999400
 5095       CTL2    40  DPPC    C1  5095  -0.080000  12.011000
 5096       HAL2    40  DPPC    HA  5096   0.090000   1.008000
 5097       HAL2    40  DPPC    HB  5097   0.090000   1.008000
 5098       CTL1    40  DPPC    C2  5098   0.170000  12.011000
 5099       HAL1    40  DPPC    HS  5099   0.090000   1.008000
 5100        OSL    40  DPPC   O21  5100  -0.490000  15.999400
 5101         CL    40  DPPC   C21  5101   0.900000  12.011000
 5102        OBL    40  DPPC   O22  5102  -0.630000  15.999400
 5103       CTL2    40  DPPC   C22  5103  -0.220000  12.011000
 5104       HAL2    40  DPPC   H2R  5104   0.090000   1.008000
 5105       HAL2    40  DPPC   H2S  5105   0.090000   1.008000
 5106       CTL2    40  DPPC    C3  5106   0.080000  12.011000
 5107       HAL2    40  DPPC    HX  5107   0.090000   1.008000
 5108       HAL2    40  DPPC    HY  5108   0.090000   1.008000
 5109        OSL    40  DPPC   O31  5109  -0.490000  15.999400
 5110         CL    40  DPPC   C31  5110   0.900000  12.011000
 5111        OBL    40  DPPC   O32  5111  -0.630000  15.999400
 5112       CTL2    40  DPPC   C32  5112  -0.220000  12.011000
 5113       HAL2    40  DPPC   H2X  5113   0.090000   1.008000
 5114       HAL2    40  DPPC   H2Y  5114   0.090000   1.008000
 5115       CTL2    40  DPPC   C23  5115  -0.180000  12.011000
 5116       HAL2    40  DPPC   H3R  5116   0.090000   1.008000
 5117       HAL2    40  DPPC   H3S  5117   0.090000   1.008000
 5118       CTL2    40  DPPC   C24  5118  -0.180000  12.011000
 5119       HAL2    40  DPPC   H4R  5119   0.090000   1.008000
 5120       HAL2    40  DPPC   H4S  5120   0.090000   1.008000
 5121       CTL2    40  DPPC   C25  5121  -0.180000  12.011000
 5122       HAL2    40  DPPC   H5R  5122   0.090000   1.008000
 5123       HAL2    40  DPPC   H5S  5123   0.090000   1.008000
 5124       CTL2    40  DPPC   C26  5124  -0.180000  12.011000
 5125       HAL2    40  DPPC   H6R  5125   0.090000   1.008000
 5126       HAL2    40  DPPC   H6S  5126   0.090000   1.008000
 5127       CTL2    40  DPPC   C27  5127  -0.180000  12.011000
 5128       HAL2    40  DPPC   H7R  5128   0.090000   1.008000
 5129       HAL2    40  DPPC   H7S  5129   0.090000   1.008000
 5130       CTL2    40  DPPC   C28  5130  -0.180000  12.011000
 5131       HAL2    40  DPPC   H8R  5131   0.090000   1.008000
 5132       HAL2    40  DPPC   H8S  5132   0.090000   1.008000
 5133       CTL2    40  DPPC   C29  5133  -0.180000  12.011000
 5134       HAL2    40  DPPC   H9R  5134   0.090000   1.008000
 5135       HAL2    40  DPPC   H9S  5135   0.090000   1.008000
 5136       CTL2    40  DPPC  C210  5136  -0.180000  12.011000
 5137       HAL2    40  DPPC  H10R  5137   0.090000   1.008000
 5138       HAL2    40  DPPC  H10S  5138   0.090000   1.008000
 5139       CTL2    40  DPPC  C211  5139  -0.180000  12.011000
 5140       HAL2    40  DPPC  H11R  5140   0.090000   1.008000
 5141       HAL2    40  DPPC  H11S  5141   0.090000   1.008000
 5142       CTL2    40  DPPC  C212  5142  -0.180000  12.011000
 5143       HAL2    40  DPPC  H12R  5143   0.090000   1.008000
 5144       HAL2    40  DPPC  H12S  5144   0.090000   1.008000
 5145       CTL2    40  DPPC  C213  5145  -0.180000  12.011000
 5146       HAL2    40  DPPC  H13R  5146   0.090000   1.008000
 5147       HAL2    40  DPPC  H13S  5147   0.090000   1.008000
 5148       CTL2    40  DPPC  C214  5148  -0.180000  12.011000
 5149       HAL2    40  DPPC  H14R  5149   0.090000   1.008000
 5150       HAL2    40  DPPC  H14S  5150   0.090000   1.008000
 5151       CTL2    40  DPPC  C215  5151  -0.180000  12.011000
 5152       HAL2    40  DPPC  H15R  5152   0.090000   1.008000
 5153       HAL2    40  DPPC  H15S  5153   0.090000   1.008000
 5154       CTL3    40  DPPC  C216  5154  -0.270000  12.011000
 5155       HAL3    40  DPPC  H16R  5155   0.090000   1.008000
 5156       HAL3    40  DPPC  H16S  5156   0.090000   1.008000
 5157       HAL3    40  DPPC  H16T  5157   0.090000   1.008000
 5158       CTL2    40  DPPC   C33  5158  -0.180000  12.011000
 5159       HAL2    40  DPPC   H3X  5159   0.090000   1.008000
 5160       HAL2    40  DPPC   H3Y  5160   0.090000   1.008000
 5161       CTL2    40  DPPC   C34  5161  -0.180000  12.011000
 5162       HAL2    40  DPPC   H4X  5162   0.090000   1.008000
 5163       HAL2    40  DPPC   H4Y  5163   0.090000   1.008000
 5164       CTL2    40  DPPC   C35  5164  -0.180000  12.011000
 5165       HAL2    40  DPPC   H5X  5165   0.090000   1.008000
 5166       HAL2    40  DPPC   H5Y  5166   0.090000   1.008000
 5167       CTL2    40  DPPC   C36  5167  -0.180000  12.011000
 5168       HAL2    40  DPPC   H6X  5168   0.090000   1.008000
 5169       HAL2    40  DPPC   H6Y  5169   0.090000   1.008000
 5170       CTL2    40  DPPC   C37  5170  -0.180000  12.011000
 5171       HAL2    40  DPPC   H7X  5171   0.090000   1.008000
 5172       HAL2    40  DPPC   H7Y  5172   0.090000   1.008000
 5173       CTL2    40  DPPC   C38  5173  -0.180000  12.011000
 5174       HAL2    40  DPPC   H8X  5174   0.090000   1.008000
 5175       HAL2    40  DPPC   H8Y  5175   0.090000   1.008000
 5176       CTL2    40  DPPC   C39  5176  -0.180000  12.011000
 5177       HAL2    40  DPPC   H9X  5177   0.090000   1.008000
 5178       HAL2    40  DPPC   H9Y  5178   0.090000   1.008000
 5179       CTL2    40  DPPC  C310  5179  -0.180000  12.011000
 5180       HAL2    40  DPPC  H10X  5180   0.090000   1.008000
 5181       HAL2    40  DPPC  H10Y  5181   0.090000   1.008000
 5182       CTL2    40  DPPC  C311  5182  -0.180000  12.011000
 5183       HAL2    40  DPPC  H11X  5183   0.090000   1.008000
 5184       HAL2    40  DPPC  H11Y  5184   0.090000   1.008000
 5185       CTL2    40  DPPC  C312  5185  -0.180000  12.011000
 5186       HAL2    40  DPPC  H12X  5186   0.090000   1.008000
 5187       HAL2    40  DPPC  H12Y  5187   0.090000   1.008000
 5188       CTL2    40  DPPC  C313  5188  -0.180000  12.011000
 5189       HAL2    40  DPPC  H13X  5189   0.090000   1.008000
 5190       HAL2    40  DPPC  H13Y  5190   0.090000   1.008000
 5191       CTL2    40  DPPC  C314  5191  -0.180000  12.011000
 5192       HAL2    40  DPPC  H14X  5192   0.090000   1.008000
 5193       HAL2    40  DPPC  H14Y  5193   0.090000   1.008000
 5194       CTL2    40  DPPC  C315  5194  -0.180000  12.011000
 5195       HAL2    40  DPPC  H15X  5195   0.090000   1.008000
 5196       HAL2    40  DPPC  H15Y  5196   0.090000   1.008000
 5197       CTL3    40  DPPC  C316  5197  -0.270000  12.011000
 5198       HAL3    40  DPPC  H16X  5198   0.090000   1.008000
 5199       HAL3    40  DPPC  H16Y  5199   0.090000   1.008000
 5200       HAL3    40  DPPC  H16Z  5200   0.090000   1.008000
 5201        NTL    41  DPPC     N  5201  -0.600000  14.007000
 5202       CTL5    41  DPPC   C13  5202  -0.350000  12.011000
 5203         HL    41  DPPC  H13A  5203   0.250000   1.008000
 5204         HL    41  DPPC  H13B  5204   0.250000   1.008000
 5205         HL    41  DPPC  H13C  5205   0.250000   1.008000
 5206       CTL5    41  DPPC   C14  5206  -0.350000  12.011000
 5207         HL    41  DPPC  H14A  5207   0.250000   1.008000
 5208         HL    41  DPPC  H14B  5208   0.250000   1.008000
 5209         HL    41  DPPC  H14C  5209   0.250000   1.008000
 5210       CTL5    41  DPPC   C15  5210  -0.350000  12.011000
 5211         HL    41  DPPC  H15A  5211   0.250000   1.008000
 5212         HL    41  DPPC  H15B  5212   0.250000   1.008000
 5213         HL    41  DPPC  H15C  5213   0.250000   1.008000
 5214       CTL2    41  DPPC   C12  5214  -0.100000  12.011000
 5215         HL    41  DPPC  H12A  5215   0.250000   1.008000
 5216         HL    41  DPPC  H12B  5216   0.250000   1.008000
 5217       CTL2    41  DPPC   C11  5217  -0.080000  12.011000
 5218       HAL2    41  DPPC  H11A  5218   0.090000   1.008000
 5219       HAL2    41  DPPC  H11B  5219   0.090000   1.008000
 5220         PL    41  DPPC     P  5220   1.500000  30.974001
 5221        O2L    41  DPPC   O13  5221  -0.780000  15.999400
 5222        O2L    41  DPPC   O14  5222  -0.780000  15.999400
 5223       OSLP    41  DPPC   O11  5223  -0.570000  15.999400
 5224       OSLP    41  DPPC   O12  5224  -0.570000  15.999400
 5225       CTL2    41  DPPC    C1  5225  -0.080000  12.011000
 5226       HAL2    41  DPPC    HA  5226   0.090000   1.008000
 5227       HAL2    41  DPPC    HB  5227   0.090000   1.008000
 5228       CTL1    41  DPPC    C2  5228   0.170000  12.011000
 5229       HAL1    41  DPPC    HS  5229   0.090000   1.008000
 5230        OSL    41  DPPC   O21  5230  -0.490000  15.999400
 5231         CL    41  DPPC   C21  5231   0.900000  12.011000
 5232        OBL    41  DPPC   O22  5232  -0.630000  15.999400
 5233       CTL2    41  DPPC   C22  5233  -0.220000  12.011000
 5234       HAL2    41  DPPC   H2R  5234   0.090000   1.008000
 5235       HAL2    41  DPPC   H2S  5235   0.090000   1.008000
 5236       CTL2    41  DPPC    C3  5236   0.080000  12.011000
 5237       HAL2    41  DPPC    HX  5237   0.090000   1.008000
 5238       HAL2    41  DPPC    HY  5238   0.090000   1.008000
 5239        OSL    41  DPPC   O31  5239  -0.490000  15.999400
 5240         CL    41  DPPC   C31  5240   0.900000  12.011000
 5241        OBL    41  DPPC   O32  5241  -0.630000  15.999400
 5242       CTL2    41  DPPC   C32  5242  -0.220000  12.011000
 5243       HAL2    41  DPPC   H2X  5243   0.090000   1.008000
 5244       HAL2    41  DPPC   H2Y  5244   0.090000   1.008000
 5245       CTL2    41  DPPC   C23  5245  -0.180000  12.011000
 5246       HAL2    41  DPPC   H3R  5246   0.090000   1.008000
 5247       HAL2    41  DPPC   H3S  5247   0.090000   1.008000
 5248       CTL2    41  DPPC   C24  5248  -0.180000  12.011000
 5249       HAL2    41  DPPC   H4R  5249   0.090000   1.008000
 5250       HAL2    41  DPPC   H4S  5250   0.090000   1.008000
 5251       CTL2    41  DPPC   C25  5251  -0.180000  12.011000
 5252       HAL2    41  DPPC   H5R  5252   0.090000   1.008000
 5253       HAL2    41  DPPC   H5S  5253   0.090000   1.008000
 5254       CTL2    41  DPPC   C26  5254  -0.180000  12.011000
 5255       HAL2    41  DPPC   H6R  5255   0.090000   1.008000
 5256       HAL2    41  DPPC   H6S  5256   0.090000   1.008000
 5257       CTL2    41  DPPC   C27  5257  -0.180000  12.011000
 5258       HAL2    41  DPPC   H7R  5258   0.090000   1.008000
 5259       HAL2    41  DPPC   H7S  5259   0.090000   1.008000
 5260       CTL2    41  DPPC   C28  5260  -0.180000  12.011000
 5261       HAL2    41  DPPC   H8R  5261   0.090000   1.008000
 5262       HAL2    41  DPPC   H8S  5262   0.090000   1.008000
 5263       CTL2    41  DPPC   C29  5263  -0.180000  12.011000
 5264       HAL2    41  DPPC   H9R  5264   0.090000   1.008000
 5265       HAL2    41  DPPC   H9S  5265   0.090000   1.008000
 5266       CTL2    41  DPPC  C210  5266  -0.180000  12.011000
 5267       HAL2    41  DPPC  H10R  5267   0.090000   1.008000
 5268       HAL2    41  DPPC  H10S  5268   0.090000   1.008000
 5269       CTL2    41  DPPC  C211  5269  -0.180000  12.011000
 5270       HAL2    41  DPPC  H11R  5270   0.090000   1.008000
 5271       HAL2    41  DPPC  H11S  5271   0.090000   1.008000
 5272       CTL2    41  DPPC  C212  5272  -0.180000  12.011000
 5273       HAL2    41  DPPC  H12R  5273   0.090000   1.008000
 5274       HAL2    41  DPPC  H12S  5274   0.090000   1.008000
 5275       CTL2    41  DPPC  C213  5275  -0.180000  12.011000
 5276       HAL2    41  DPPC  H13R  5276   0.090000   1.008000
 5277       HAL2    41  DPPC  H13S  5277   0.090000   1.008000
 5278       CTL2    41  DPPC  C214  5278  -0.180000  12.011000
 5279       HAL2    41  DPPC  H14R  5279   0.090000   1.008000
 5280       HAL2    41  DPPC  H14S  5280   0.090000   1.008000
 5281       CTL2    41  DPPC  C215  5281  -0.180000  12.011000
 5282       HAL2    41  DPPC  H15R  5282   0.090000   1.008000
 5283       HAL2    41  DPPC  H15S  5283   0.090000   1.008000
 5284       CTL3    41  DPPC  C216  5284  -0.270000  12.011000
 5285       HAL3    41  DPPC  H16R  5285   0.090000   1.008000
 5286       HAL3    41  DPPC  H16S  5286   0.090000   1.008000
 5287       HAL3    41  DPPC  H16T  5287   0.090000   1.008000
 5288       CTL2    41  DPPC   C33  5288  -0.180000  12.011000
 5289       HAL2    41  DPPC   H3X  5289   0.090000   1.008000
 5290       HAL2    41  DPPC   H3Y  5290   0.090000   1.008000
 5291       CTL2    41  DPPC   C34  5291  -0.180000  12.011000
 5292       HAL2    41  DPPC   H4X  5292   0.090000   1.008000
 5293       HAL2    41  DPPC   H4Y  5293   0.090000   1.008000
 5294       CTL2    41  DPPC   C35  5294  -0.180000  12.011000
 5295       HAL2    41  DPPC   H5X  5295   0.090000   1.008000
 5296       HAL2    41  DPPC   H5Y  5296   0.090000   1.008000
 5297       CTL2    41  DPPC   C36  5297  -0.180000  12.011000
 5298       HAL2    41  DPPC   H6X  5298   0.090000   1.008000
 5299       HAL2    41  DPPC   H6Y  5299   0.090000   1.008000
 5300       CTL2    41  DPPC   C37  5300  -0.180000  12.011000
 5301       HAL2    41  DPPC   H7X  5301   0.090000   1.008000
 5302       HAL2    41  DPPC   H7Y  5302   0.090000   1.008000
 5303       CTL2    41  DPPC   C38  5303  -0.180000  12.011000
 5304       HAL2    41  DPPC   H8X  5304   0.090000   1.008000
 5305       HAL2    41  DPPC   H8Y  5305   0.090000   1.008000
 5306       CTL2    41  DPPC   C39  5306  -0.180000  12.011000
 5307       HAL2    41  DPPC   H9X  5307   0.090000   1.008000
 5308       HAL2    41  DPPC   H9Y  5308   0.090000   1.008000
 5309       CTL2    41  DPPC  C310  5309  -0.180000  12.011000
 5310       HAL2    41  DPPC  H10X  5310   0.090000   1.008000
 5311       HAL2    41  DPPC  H10Y  5311   0.090000   1.008000
 5312       CTL2    41  DPPC  C311  5312  -0.180000  12.011000
 5313       HAL2    41  DPPC  H11X  5313   0.090000   1.008000
 5314       HAL2    41  DPPC  H11Y  5314   0.090000   1.008000
 5315       CTL2    41  DPPC  C312  5315  -0.180000  12.011000
 5316       HAL2    41  DPPC  H12X  5316   0.090000   1.008000
 5317       HAL2    41  DPPC  H12Y  5317   0.090000   1.008000
 5318       CTL2    41  DPPC  C313  5318  -0.180000  12.011000
 5319       HAL2    41  DPPC  H13X  5319   0.090000   1.008000
 5320       HAL2    41  DPPC  H13Y  5320   0.090000   1.008000
 5321       CTL2    41  DPPC  C314  5321  -0.180000  12.011000
 5322       HAL2    41  DPPC  H14X  5322   0.090000   1.008000
 5323       HAL2    41  DPPC  H14Y  5323   0.090000   1.008000
 5324       CTL2    41  DPPC  C315  5324  -0.180000  12.011000
 5325       HAL2    41  DPPC  H15X  5325   0.090000   1.008000
 5326       HAL2    41  DPPC  H15Y  5326   0.090000   1.008000
 5327       CTL3    41  DPPC  C316  5327  -0.270000  12.011000
 5328       HAL3    41  DPPC  H16X  5328   0.090000   1.008000
 5329       HAL3    41  DPPC  H16Y  5329   0.090000   1.008000
 5330       HAL3    41  DPPC  H16Z  5330   0.090000   1.008000
 5331        NTL    42  DPPC     N  5331  -0.600000  14.007000
 5332       CTL5    42  DPPC   C13  5332  -0.350000  12.011000
 5333         HL    42  DPPC  H13A  5333   0.250000   1.008000
 5334         HL    42  DPPC  H13B  5334   0.250000   1.008000
 5335         HL    42  DPPC  H13C  5335   0.250000   1.008000
 5336       CTL5    42  DPPC   C14  5336  -0.350000  12.011000
 5337         HL    42  DPPC  H14A  5337   0.250000   1.008000
 5338         HL    42  DPPC  H14B  5338   0.250000   1.008000
 5339         HL    42  DPPC  H14C  5339   0.250000   1.008000
 5340       CTL5    42  DPPC   C15  5340  -0.350000  12.011000
 5341         HL    42  DPPC  H15A  5341   0.250000   1.008000
 5342         HL    42  DPPC  H15B  5342   0.250000   1.008000
 5343         HL    42  DPPC  H15C  5343   0.250000   1.008000
 5344       CTL2    42  DPPC   C12  5344  -0.100000  12.011000
 5345         HL    42  DPPC  H12A  5345   0.250000   1.008000
 5346         HL    42  DPPC  H12B  5346   0.250000   1.008000
 5347       CTL2    42  DPPC   C11  5347  -0.080000  12.011000
 5348       HAL2    42  DPPC  H11A  5348   0.090000   1.008000
 5349       HAL2    42  DPPC  H11B  5349   0.090000   1.008000
 5350         PL    42  DPPC     P  5350   1.500000  30.974001
 5351        O2L    42  DPPC   O13  5351  -0.780000  15.999400
 5352        O2L    42  DPPC   O14  5352  -0.780000  15.999400
 5353       OSLP    42  DPPC   O11  5353  -0.570000  15.999400
 5354       OSLP    42  DPPC   O12  5354  -0.570000  15.999400
 5355       CTL2    42  DPPC    C1  5355  -0.080000  12.011000
 5356       HAL2    42  DPPC    HA  5356   0.090000   1.008000
 5357       HAL2    42  DPPC    HB  5357   0.090000   1.008000
 5358       CTL1    42  DPPC    C2  5358   0.170000  12.011000
 5359       HAL1    42  DPPC    HS  5359   0.090000   1.008000
 5360        OSL    42  DPPC   O21  5360  -0.490000  15.999400
 5361         CL    42  DPPC   C21  5361   0.900000  12.011000
 5362        OBL    42  DPPC   O22  5362  -0.630000  15.999400
 5363       CTL2    42  DPPC   C22  5363  -0.220000  12.011000
 5364       HAL2    42  DPPC   H2R  5364   0.090000   1.008000
 5365       HAL2    42  DPPC   H2S  5365   0.090000   1.008000
 5366       CTL2    42  DPPC    C3  5366   0.080000  12.011000
 5367       HAL2    42  DPPC    HX  5367   0.090000   1.008000
 5368       HAL2    42  DPPC    HY  5368   0.090000   1.008000
 5369        OSL    42  DPPC   O31  5369  -0.490000  15.999400
 5370         CL    42  DPPC   C31  5370   0.900000  12.011000
 5371        OBL    42  DPPC   O32  5371  -0.630000  15.999400
 5372       CTL2    42  DPPC   C32  5372  -0.220000  12.011000
 5373       HAL2    42  DPPC   H2X  5373   0.090000   1.008000
 5374       HAL2    42  DPPC   H2Y  5374   0.090000   1.008000
 5375       CTL2    42  DPPC   C23  5375  -0.180000  12.011000
 5376       HAL2    42  DPPC   H3R  5376   0.090000   1.008000
 5377       HAL2    42  DPPC   H3S  5377   0.090000   1.008000
 5378       CTL2    42  DPPC   C24  5378  -0.180000  12.011000
 5379       HAL2    42  DPPC   H4R  5379   0.090000   1.008000
 5380       HAL2    42  DPPC   H4S  5380   0.090000   1.008000
 5381       CTL2    42  DPPC   C25  5381  -0.180000  12.011000
 5382       HAL2    42  DPPC   H5R  5382   0.090000   1.008000
 5383       HAL2    42  DPPC   H5S  5383   0.090000   1.008000
 5384       CTL2    42  DPPC   C26  5384  -0.180000  12.011000
 5385       HAL2    42  DPPC   H6R  5385   0.090000   1.008000
 5386       HAL2    42  DPPC   H6S  5386   0.090000   1.008000
 5387       CTL2    42  DPPC   C27  5387  -0.180000  12.011000
 5388       HAL2    42  DPPC   H7R  5388   0.090000   1.008000
 5389       HAL2    42  DPPC   H7S  5389   0.090000   1.008000
 5390       CTL2    42  DPPC   C28  5390  -0.180000  12.011000
 5391       HAL2    42  DPPC   H8R  5391   0.090000   1.008000
 5392       HAL2    42  DPPC   H8S  5392   0.090000   1.008000
 5393       CTL2    42  DPPC   C29  5393  -0.180000  12.011000
 5394       HAL2    42  DPPC   H9R  5394   0.090000   1.008000
 5395       HAL2    42  DPPC   H9S  5395   0.090000   1.008000
 5396       CTL2    42  DPPC  C210  5396  -0.180000  12.011000
 5397       HAL2    42  DPPC  H10R  5397   0.090000   1.008000
 5398       HAL2    42  DPPC  H10S  5398   0.090000   1.008000
 5399       CTL2    42  DPPC  C211  5399  -0.180000  12.011000
 5400       HAL2    42  DPPC  H11R  5400   0.090000   1.008000
 5401       HAL2    42  DPPC  H11S  5401   0.090000   1.008000
 5402       CTL2    42  DPPC  C212  5402  -0.180000  12.011000
 5403       HAL2    42  DPPC  H12R  5403   0.090000   1.008000
 5404       HAL2    42  DPPC  H12S  5404   0.090000   1.008000
 5405       CTL2    42  DPPC  C213  5405  -0.180000  12.011000
 5406       HAL2    42  DPPC  H13R  5406   0.090000   1.008000
 5407       HAL2    42  DPPC  H13S  5407   0.090000   1.008000
 5408       CTL2    42  DPPC  C214  5408  -0.180000  12.011000
 5409       HAL2    42  DPPC  H14R  5409   0.090000   1.008000
 5410       HAL2    42  DPPC  H14S  5410   0.090000   1.008000
 5411       CTL2    42  DPPC  C215  5411  -0.180000  12.011000
 5412       HAL2    42  DPPC  H15R  5412   0.090000   1.008000
 5413       HAL2    42  DPPC  H15S  5413   0.090000   1.008000
 5414       CTL3    42  DPPC  C216  5414  -0.270000  12.011000
 5415       HAL3    42  DPPC  H16R  5415   0.090000   1.008000
 5416       HAL3    42  DPPC  H16S  5416   0.090000   1.008000
 5417       HAL3    42  DPPC  H16T  5417   0.090000   1.008000
 5418       CTL2    42  DPPC   C33  5418  -0.180000  12.011000
 5419       HAL2    42  DPPC   H3X  5419   0.090000   1.008000
 5420       HAL2    42  DPPC   H3Y  5420   0.090000   1.008000
 5421       CTL2    42  DPPC   C34  5421  -0.180000  12.011000
 5422       HAL2    42  DPPC   H4X  5422   0.090000   1.008000
 5423       HAL2    42  DPPC   H4Y  5423   0.090000   1.008000
 5424       CTL2    42  DPPC   C35  5424  -0.180000  12.011000
 5425       HAL2    42  DPPC   H5X  5425   0.090000   1.008000
 5426       HAL2    42  DPPC   H5Y  5426   0.090000   1.008000
 5427       CTL2    42  DPPC   C36  5427  -0.180000  12.011000
 5428       HAL2    42  DPPC   H6X  5428   0.090000   1.008000
 5429       HAL2    42  DPPC   H6Y  5429   0.090000   1.008000
 5430       CTL2    42  DPPC   C37  5430  -0.180000  12.011000
 5431       HAL2    42  DPPC   H7X  5431   0.090000   1.008000
 5432       HAL2    42  DPPC   H7Y  5432   0.090000   1.008000
 5433       CTL2    42  DPPC   C38  5433  -0.180000  12.011000
 5434       HAL2    42  DPPC   H8X  5434   0.090000   1.008000
 5435       HAL2    42  DPPC   H8Y  5435   0.090000   1.008000
 5436       CTL2    42  DPPC   C39  5436  -0.180000  12.011000
 5437       HAL2    42  DPPC   H9X  5437   0.090000   1.008000
 5438       HAL2    42  DPPC   H9Y  5438   0.090000   1.008000
 5439       CTL2    42  DPPC  C310  5439  -0.180000  12.011000
 5440       HAL2    42  DPPC  H10X  5440   0.090000   1.008000
 5441       HAL2    42  DPPC  H10Y  5441   0.090000   1.008000
 5442       CTL2    42  DPPC  C311  5442  -0.180000  12.011000
 5443       HAL2    42  DPPC  H11X  5443   0.090000   1.008000
 5444       HAL2    42  DPPC  H11Y  5444   0.090000   1.008000
 5445       CTL2    42  DPPC  C312  5445  -0.180000  12.011000
 5446       HAL2    42  DPPC  H12X  5446   0.090000   1.008000
 5447       HAL2    42  DPPC  H12Y  5447   0.090000   1.008000
 5448       CTL2    42  DPPC  C313  5448  -0.180000  12.011000
 5449       HAL2    42  DPPC  H13X  5449   0.090000   1.008000
 5450       HAL2    42  DPPC  H13Y  5450   0.090000   1.008000
 5451       CTL2    42  DPPC  C314  5451  -0.180000  12.011000
 5452       HAL2    42  DPPC  H14X  5452   0.090000   1.008000
 5453       HAL2    42  DPPC  H14Y  5453   0.090000   1.008000
 5454       CTL2    42  DPPC  C315  5454  -0.180000  12.011000
 5455       HAL2    42  DPPC  H15X  5455   0.090000   1.008000
 5456       HAL2    42  DPPC  H15Y  5456   0.090000   1.008000
 5457       CTL3    42  DPPC  C316  5457  -0.270000  12.011000
 5458       HAL3    42  DPPC  H16X  5458   0.090000   1.008000
 5459       HAL3    42  DPPC  H16Y  5459   0.090000   1.008000
 5460       HAL3    42  DPPC  H16Z  5460   0.090000   1.008000
 5461        NTL    43  DPPC     N  5461  -0.600000  14.007000
 5462       CTL5    43  DPPC   C13  5462  -0.350000  12.011000
 5463         HL    43  DPPC  H13A  5463   0.250000   1.008000
 5464         HL    43  DPPC  H13B  5464   0.250000   1.008000
 5465         HL    43  DPPC  H13C  5465   0.250000   1.008000
 5466       CTL5    43  DPPC   C14  5466  -0.350000  12.011000
 5467         HL    43  DPPC  H14A  5467   0.250000   1.008000
 5468         HL    43  DPPC  H14B  5468   0.250000   1.008000
 5469         HL    43  DPPC  H14C  5469   0.250000   1.008000
 5470       CTL5    43  DPPC   C15  5470  -0.350000  12.011000
 5471         HL    43  DPPC  H15A  5471   0.250000   1.008000
 5472         HL    43  DPPC  H15B  5472   0.250000   1.008000
 5473         HL    43  DPPC  H15C  5473   0.250000   1.008000
 5474       CTL2    43  DPPC   C12  5474  -0.100000  12.011000
 5475         HL    43  DPPC  H12A  5475   0.250000   1.008000
 5476         HL    43  DPPC  H12B  5476   0.250000   1.008000
 5477       CTL2    43  DPPC   C11  5477  -0.080000  12.011000
 5478       HAL2    43  DPPC  H11A  5478   0.090000   1.008000
 5479       HAL2    43  DPPC  H11B  5479   0.090000   1.008000
 5480         PL    43  DPPC     P  5480   1.500000  30.974001
 5481        O2L    43  DPPC   O13  5481  -0.780000  15.999400
 5482        O2L    43  DPPC   O14  5482  -0.780000  15.999400
 5483       OSLP    43  DPPC   O11  5483  -0.570000  15.999400
 5484       OSLP    43  DPPC   O12  5484  -0.570000  15.999400
 5485       CTL2    43  DPPC    C1  5485  -0.080000  12.011000
 5486       HAL2    43  DPPC    HA  5486   0.090000   1.008000
 5487       HAL2    43  DPPC    HB  5487   0.090000   1.008000
 5488       CTL1    43  DPPC    C2  5488   0.170000  12.011000
 5489       HAL1    43  DPPC    HS  5489   0.090000   1.008000
 5490        OSL    43  DPPC   O21  5490  -0.490000  15.999400
 5491         CL    43  DPPC   C21  5491   0.900000  12.011000
 5492        OBL    43  DPPC   O22  5492  -0.630000  15.999400
 5493       CTL2    43  DPPC   C22  5493  -0.220000  12.011000
 5494       HAL2    43  DPPC   H2R  5494   0.090000   1.008000
 5495       HAL2    43  DPPC   H2S  5495   0.090000   1.008000
 5496       CTL2    43  DPPC    C3  5496   0.080000  12.011000
 5497       HAL2    43  DPPC    HX  5497   0.090000   1.008000
 5498       HAL2    43  DPPC    HY  5498   0.090000   1.008000
 5499        OSL    43  DPPC   O31  5499  -0.490000  15.999400
 5500         CL    43  DPPC   C31  5500   0.900000  12.011000
 5501        OBL    43  DPPC   O32  5501  -0.630000  15.999400
 5502       CTL2    43  DPPC   C32  5502  -0.220000  12.011000
 5503       HAL2    43  DPPC   H2X  5503   0.090000   1.008000
 5504       HAL2    43  DPPC   H2Y  5504   0.090000   1.008000
 5505       CTL2    43  DPPC   C23  5505  -0.180000  12.011000
 5506       HAL2    43  DPPC   H3R  5506   0.090000   1.008000
 5507       HAL2    43  DPPC   H3S  5507   0.090000   1.008000
 5508       CTL2    43  DPPC   C24  5508  -0.180000  12.011000
 5509       HAL2    43  DPPC   H4R  5509   0.090000   1.008000
 5510       HAL2    43  DPPC   H4S  5510   0.090000   1.008000
 5511       CTL2    43  DPPC   C25  5511  -0.180000  12.011000
 5512       HAL2    43  DPPC   H5R  5512   0.090000   1.008000
 5513       HAL2    43  DPPC   H5S  5513   0.090000   1.008000
 5514       CTL2    43  DPPC   C26  5514  -0.180000  12.011000
 5515       HAL2    43  DPPC   H6R  5515   0.090000   1.008000
 5516       HAL2    43  DPPC   H6S  5516   0.090000   1.008000
 5517       CTL2    43  DPPC   C27  5517  -0.180000  12.011000
 5518       HAL2    43  DPPC   H7R  5518   0.090000   1.008000
 5519       HAL2    43  DPPC   H7S  5519   0.090000   1.008000
 5520       CTL2    43  DPPC   C28  5520  -0.180000  12.011000
 5521       HAL2    43  DPPC   H8R  5521   0.090000   1.008000
 5522       HAL2    43  DPPC   H8S  5522   0.090000   1.008000
 5523       CTL2    43  DPPC   C29  5523  -0.180000  12.011000
 5524       HAL2    43  DPPC   H9R  5524   0.090000   1.008000
 5525       HAL2    43  DPPC   H9S  5525   0.090000   1.008000
 5526       CTL2    43  DPPC  C210  5526  -0.180000  12.011000
 5527       HAL2    43  DPPC  H10R  5527   0.090000   1.008000
 5528       HAL2    43  DPPC  H10S  5528   0.090000   1.008000
 5529       CTL2    43  DPPC  C211  5529  -0.180000  12.011000
 5530       HAL2    43  DPPC  H11R  5530   0.090000   1.008000
 5531       HAL2    43  DPPC  H11S  5531   0.090000   1.008000
 5532       CTL2    43  DPPC  C212  5532  -0.180000  12.011000
 5533       HAL2    43  DPPC  H12R  5533   0.090000   1.008000
 5534       HAL2    43  DPPC  H12S  5534   0.090000   1.008000
 5535       CTL2    43  DPPC  C213  5535  -0.180000  12.011000
 5536       HAL2    43  DPPC  H13R  5536   0.090000   1.008000
 5537       HAL2    43  DPPC  H13S  5537   0.090000   1.008000
 5538       CTL2    43  DPPC  C214  5538  -0.180000  12.011000
 5539       HAL2    43  DPPC  H14R  5539   0.090000   1.008000
 5540       HAL2    43  DPPC  H14S  5540   0.090000   1.008000
 5541       CTL2    43  DPPC  C215  5541  -0.180000  12.011000
 5542       HAL2    43  DPPC  H15R  5542   0.090000   1.008000
 5543       HAL2    43  DPPC  H15S  5543   0.090000   1.008000
 5544       CTL3    43  DPPC  C216  5544  -0.270000  12.011000
 5545       HAL3    43  DPPC  H16R  5545   0.090000   1.008000
 5546       HAL3    43  DPPC  H16S  5546   0.090000   1.008000
 5547       HAL3    43  DPPC  H16T  5547   0.090000   1.008000
 5548       CTL2    43  DPPC   C33  5548  -0.180000  12.011000
 5549       HAL2    43  DPPC   H3X  5549   0.090000   1.008000
 5550       HAL2    43  DPPC   H3Y  5550   0.090000   1.008000
 5551       CTL2    43  DPPC   C34  5551  -0.180000  12.011000
 5552       HAL2    43  DPPC   H4X  5552   0.090000   1.008000
 5553       HAL2    43  DPPC   H4Y  5553   0.090000   1.008000
 5554       CTL2    43  DPPC   C35  5554  -0.180000  12.011000
 5555       HAL2    43  DPPC   H5X  5555   0.090000   1.008000
 5556       HAL2    43  DPPC   H5Y  5556   0.090000   1.008000
 5557       CTL2    43  DPPC   C36  5557  -0.180000  12.011000
 5558       HAL2    43  DPPC   H6X  5558   0.090000   1.008000
 5559       HAL2    43  DPPC   H6Y  5559   0.090000   1.008000
 5560       CTL2    43  DPPC   C37  5560  -0.180000  12.011000
 5561       HAL2    43  DPPC   H7X  5561   0.090000   1.008000
 5562       HAL2    43  DPPC   H7Y  5562   0.090000   1.008000
 5563       CTL2    43  DPPC   C38  5563  -0.180000  12.011000
 5564       HAL2    43  DPPC   H8X  5564   0.090000   1.008000
 5565       HAL2    43  DPPC   H8Y  5565   0.090000   1.008000
 5566       CTL2    43  DPPC   C39  5566  -0.180000  12.011000
 5567       HAL2    43  DPPC   H9X  5567   0.090000   1.008000
 5568       HAL2    43  DPPC   H9Y  5568   0.090000   1.008000
 5569       CTL2    43  DPPC  C310  5569  -0.180000  12.011000
 5570       HAL2    43  DPPC  H10X  5570   0.090000   1.008000
 5571       HAL2    43  DPPC  H10Y  5571   0.090000   1.008000
 5572       CTL2    43  DPPC  C311  5572  -0.180000  12.011000
 5573       HAL2    43  DPPC  H11X  5573   0.090000   1.008000
 5574       HAL2    43  DPPC  H11Y  5574   0.090000   1.008000
 5575       CTL2    43  DPPC  C312  5575  -0.180000  12.011000
 5576       HAL2    43  DPPC  H12X  5576   0.090000   1.008000
 5577       HAL2    43  DPPC  H12Y  5577   0.090000   1.008000
 5578       CTL2    43  DPPC  C313  5578  -0.180000  12.011000
 5579       HAL2    43  DPPC  H13X  5579   0.090000   1.008000
 5580       HAL2    43  DPPC  H13Y  5580   0.090000   1.008000
 5581       CTL2    43  DPPC  C314  5581  -0.180000  12.011000
 5582       HAL2    43  DPPC  H14X  5582   0.090000   1.008000
 5583       HAL2    43  DPPC  H14Y  5583   0.090000   1.008000
 5584       CTL2    43  DPPC  C315  5584  -0.180000  12.011000
 5585       HAL2    43  DPPC  H15X  5585   0.090000   1.008000
 5586       HAL2    43  DPPC  H15Y  5586   0.090000   1.008000
 5587       CTL3    43  DPPC  C316  5587  -0.270000  12.011000
 5588       HAL3    43  DPPC  H16X  5588   0.090000   1.008000
 5589       HAL3    43  DPPC  H16Y  5589   0.090000   1.008000
 5590       HAL3    43  DPPC  H16Z  5590   0.090000   1.008000
 5591        NTL    44  DPPC     N  5591  -0.600000  14.007000
 5592       CTL5    44  DPPC   C13  5592  -0.350000  12.011000
 5593         HL    44  DPPC  H13A  5593   0.250000   1.008000
 5594         HL    44  DPPC  H13B  5594   0.250000   1.008000
 5595         HL    44  DPPC  H13C  5595   0.250000   1.008000
 5596       CTL5    44  DPPC   C14  5596  -0.350000  12.011000
 5597         HL    44  DPPC  H14A  5597   0.250000   1.008000
 5598         HL    44  DPPC  H14B  5598   0.250000   1.008000
 5599         HL    44  DPPC  H14C  5599   0.250000   1.008000
 5600       CTL5    44  DPPC   C15  5600  -0.350000  12.011000
 5601         HL    44  DPPC  H15A  5601   0.250000   1.008000
 5602         HL    44  DPPC  H15B  5602   0.250000   1.008000
 5603         HL    44  DPPC  H15C  5603   0.250000   1.008000
 5604       CTL2    44  DPPC   C12  5604  -0.100000  12.011000
 5605         HL    44  DPPC  H12A  5605   0.250000   1.008000
 5606         HL    44  DPPC  H12B  5606   0.250000   1.008000
 5607       CTL2    44  DPPC   C11  5607  -0.080000  12.011000
 5608       HAL2    44  DPPC  H11A  5608   0.090000   1.008000
 5609       HAL2    44  DPPC  H11B  5609   0.090000   1.008000
 5610         PL    44  DPPC     P  5610   1.500000  30.974001
 5611        O2L    44  DPPC   O13  5611  -0.780000  15.999400
 5612        O2L    44  DPPC   O14  5612  -0.780000  15.999400
 5613       OSLP    44  DPPC   O11  5613  -0.570000  15.999400
 5614       OSLP    44  DPPC   O12  5614  -0.570000  15.999400
 5615       CTL2    44  DPPC    C1  5615  -0.080000  12.011000
 5616       HAL2    44  DPPC    HA  5616   0.090000   1.008000
 5617       HAL2    44  DPPC    HB  5617   0.090000   1.008000
 5618       CTL1    44  DPPC    C2  5618   0.170000  12.011000
 5619       HAL1    44  DPPC    HS  5619   0.090000   1.008000
 5620        OSL    44  DPPC   O21  5620  -0.490000  15.999400
 5621         CL    44  DPPC   C21  5621   0.900000  12.011000
 5622        OBL    44  DPPC   O22  5622  -0.630000  15.999400
 5623       CTL2    44  DPPC   C22  5623  -0.220000  12.011000
 5624       HAL2    44  DPPC   H2R  5624   0.090000   1.008000
 5625       HAL2    44  DPPC   H2S  5625   0.090000   1.008000
 5626       CTL2    44  DPPC    C3  5626   0.080000  12.011000
 5627       HAL2    44  DPPC    HX  5627   0.090000   1.008000
 5628       HAL2    44  DPPC    HY  5628   0.090000   1.008000
 5629        OSL    44  DPPC   O31  5629  -0.490000  15.999400
 5630         CL    44  DPPC   C31  5630   0.900000  12.011000
 5631        OBL    44  DPPC   O32  5631  -0.630000  15.999400
 5632       CTL2    44  DPPC   C32  5632  -0.220000  12.011000
 5633       HAL2    44  DPPC   H2X  5633   0.090000   1.008000
 5634       HAL2    44  DPPC   H2Y  5634   0.090000   1.008000
 5635       CTL2    44  DPPC   C23  5635  -0.180000  12.011000
 5636       HAL2    44  DPPC   H3R  5636   0.090000   1.008000
 5637       HAL2    44  DPPC   H3S  5637   0.090000   1.008000
 5638       CTL2    44  DPPC   C24  5638  -0.180000  12.011000
 5639       HAL2    44  DPPC   H4R  5639   0.090000   1.008000
 5640       HAL2    44  DPPC   H4S  5640   0.090000   1.008000
 5641       CTL2    44  DPPC   C25  5641  -0.180000  12.011000
 5642       HAL2    44  DPPC   H5R  5642   0.090000   1.008000
 5643       HAL2    44  DPPC   H5S  5643   0.090000   1.008000
 5644       CTL2    44  DPPC   C26  5644  -0.180000  12.011000
 5645       HAL2    44  DPPC   H6R  5645   0.090000   1.008000
 5646       HAL2    44  DPPC   H6S  5646   0.090000   1.008000
 5647       CTL2    44  DPPC   C27  5647  -0.180000  12.011000
 5648       HAL2    44  DPPC   H7R  5648   0.090000   1.008000
 5649       HAL2    44  DPPC   H7S  5649   0.090000   1.008000
 5650       CTL2    44  DPPC   C28  5650  -0.180000  12.011000
 5651       HAL2    44  DPPC   H8R  5651   0.090000   1.008000
 5652       HAL2    44  DPPC   H8S  5652   0.090000   1.008000
 5653       CTL2    44  DPPC   C29  5653  -0.180000  12.011000
 5654       HAL2    44  DPPC   H9R  5654   0.090000   1.008000
 5655       HAL2    44  DPPC   H9S  5655   0.090000   1.008000
 5656       CTL2    44  DPPC  C210  5656  -0.180000  12.011000
 5657       HAL2    44  DPPC  H10R  5657   0.090000   1.008000
 5658       HAL2    44  DPPC  H10S  5658   0.090000   1.008000
 5659       CTL2    44  DPPC  C211  5659  -0.180000  12.011000
 5660       HAL2    44  DPPC  H11R  5660   0.090000   1.008000
 5661       HAL2    44  DPPC  H11S  5661   0.090000   1.008000
 5662       CTL2    44  DPPC  C212  5662  -0.180000  12.011000
 5663       HAL2    44  DPPC  H12R  5663   0.090000   1.008000
 5664       HAL2    44  DPPC  H12S  5664   0.090000   1.008000
 5665       CTL2    44  DPPC  C213  5665  -0.180000  12.011000
 5666       HAL2    44  DPPC  H13R  5666   0.090000   1.008000
 5667       HAL2    44  DPPC  H13S  5667   0.090000   1.008000
 5668       CTL2    44  DPPC  C214  5668  -0.180000  12.011000
 5669       HAL2    44  DPPC  H14R  5669   0.090000   1.008000
 5670       HAL2    44  DPPC  H14S  5670   0.090000   1.008000
 5671       CTL2    44  DPPC  C215  5671  -0.180000  12.011000
 5672       HAL2    44  DPPC  H15R  5672   0.090000   1.008000
 5673       HAL2    44  DPPC  H15S  5673   0.090000   1.008000
 5674       CTL3    44  DPPC  C216  5674  -0.270000  12.011000
 5675       HAL3    44  DPPC  H16R  5675   0.090000   1.008000
 5676       HAL3    44  DPPC  H16S  5676   0.090000   1.008000
 5677       HAL3    44  DPPC  H16T  5677   0.090000   1.008000
 5678       CTL2    44  DPPC   C33  5678  -0.180000  12.011000
 5679       HAL2    44  DPPC   H3X  5679   0.090000   1.008000
 5680       HAL2    44  DPPC   H3Y  5680   0.090000   1.008000
 5681       CTL2    44  DPPC   C34  5681  -0.180000  12.011000
 5682       HAL2    44  DPPC   H4X  5682   0.090000   1.008000
 5683       HAL2    44  DPPC   H4Y  5683   0.090000   1.008000
 5684       CTL2    44  DPPC   C35  5684  -0.180000  12.011000
 5685       HAL2    44  DPPC   H5X  5685   0.090000   1.008000
 5686       HAL2    44  DPPC   H5Y  5686   0.090000   1.008000
 5687       CTL2    44  DPPC   C36  5687  -0.180000  12.011000
 5688       HAL2    44  DPPC   H6X  5688   0.090000   1.008000
 5689       HAL2    44  DPPC   H6Y  5689   0.090000   1.008000
 5690       CTL2    44  DPPC   C37  5690  -0.180000  12.011000
 5691       HAL2    44  DPPC   H7X  5691   0.090000   1.008000
 5692       HAL2    44  DPPC   H7Y  5692   0.090000   1.008000
 5693       CTL2    44  DPPC   C38  5693  -0.180000  12.011000
 5694       HAL2    44  DPPC   H8X  5694   0.090000   1.008000
 5695       HAL2    44  DPPC   H8Y  5695   0.090000   1.008000
 5696       CTL2    44  DPPC   C39  5696  -0.180000  12.011000
 5697       HAL2    44  DPPC   H9X  5697   0.090000   1.008000
 5698       HAL2    44  DPPC   H9Y  5698   0.090000   1.008000
 5699       CTL2    44  DPPC  C310  5699  -0.180000  12.011000
 5700       HAL2    44  DPPC  H10X  5700   0.090000   1.008000
 5701       HAL2    44  DPPC  H10Y  5701   0.090000   1.008000
 5702       CTL2    44  DPPC  C311  5702  -0.180000  12.011000
 5703       HAL2    44  DPPC  H11X  5703   0.090000   1.008000
 5704       HAL2    44  DPPC  H11Y  5704   0.090000   1.008000
 5705       CTL2    44  DPPC  C312  5705  -0.180000  12.011000
 5706       HAL2    44  DPPC  H12X  5706   0.090000   1.008000
 5707       HAL2    44  DPPC  H12Y  5707   0.090000   1.008000
 5708       CTL2    44  DPPC  C313  5708  -0.180000  12.011000
 5709       HAL2    44  DPPC  H13X  5709   0.090000   1.008000
 5710       HAL2    44  DPPC  H13Y  5710   0.090000   1.008000
 5711       CTL2    44  DPPC  C314  5711  -0.180000  12.011000
 5712       HAL2    44  DPPC  H14X  5712   0.090000   1.008000
 5713       HAL2    44  DPPC  H14Y  5713   0.090000   1.008000
 5714       CTL2    44  DPPC  C315  5714  -0.180000  12.011000
 5715       HAL2    44  DPPC  H15X  5715   0.090000   1.008000
 5716       HAL2    44  DPPC  H15Y  5716   0.090000   1.008000
 5717       CTL3    44  DPPC  C316  5717  -0.270000  12.011000
 5718       HAL3    44  DPPC  H16X  5718   0.090000   1.008000
 5719       HAL3    44  DPPC  H16Y  5719   0.090000   1.008000
 5720       HAL3    44  DPPC  H16Z  5720   0.090000   1.008000
 5721        NTL    45  DPPC     N  5721  -0.600000  14.007000
 5722       CTL5    45  DPPC   C13  5722  -0.350000  12.011000
 5723         HL    45  DPPC  H13A  5723   0.250000   1.008000
 5724         HL    45  DPPC  H13B  5724   0.250000   1.008000
 5725         HL    45  DPPC  H13C  5725   0.250000   1.008000
 5726       CTL5    45  DPPC   C14  5726  -0.350000  12.011000
 5727         HL    45  DPPC  H14A  5727   0.250000   1.008000
 5728         HL    45  DPPC  H14B  5728   0.250000   1.008000
 5729         HL    45  DPPC  H14C  5729   0.250000   1.008000
 5730       CTL5    45  DPPC   C15  5730  -0.350000  12.011000
 5731         HL    45  DPPC  H15A  5731   0.250000   1.008000
 5732         HL    45  DPPC  H15B  5732   0.250000   1.008000
 5733         HL    45  DPPC  H15C  5733   0.250000   1.008000
 5734       CTL2    45  DPPC   C12  5734  -0.100000  12.011000
 5735         HL    45  DPPC  H12A  5735   0.250000   1.008000
 5736         HL    45  DPPC  H12B  5736   0.250000   1.008000
 5737       CTL2    45  DPPC   C11  5737  -0.080000  12.011000
 5738       HAL2    45  DPPC  H11A  5738   0.090000   1.008000
 5739       HAL2    45  DPPC  H11B  5739   0.090000   1.008000
 5740         PL    45  DPPC     P  5740   1.500000  30.974001
 5741        O2L    45  DPPC   O13  5741  -0.780000  15.999400
 5742        O2L    45  DPPC   O14  5742  -0.780000  15.999400
 5743       OSLP    45  DPPC   O11  5743  -0.570000  15.999400
 5744       OSLP    45  DPPC   O12  5744  -0.570000  15.999400
 5745       CTL2    45  DPPC    C1  5745  -0.080000  12.011000
 5746       HAL2    45  DPPC    HA  5746   0.090000   1.008000
 5747       HAL2    45  DPPC    HB  5747   0.090000   1.008000
 5748       CTL1    45  DPPC    C2  5748   0.170000  12.011000
 5749       HAL1    45  DPPC    HS  5749   0.090000   1.008000
 5750        OSL    45  DPPC   O21  5750  -0.490000  15.999400
 5751         CL    45  DPPC   C21  5751   0.900000  12.011000
 5752        OBL    45  DPPC   O22  5752  -0.630000  15.999400
 5753       CTL2    45  DPPC   C22  5753  -0.220000  12.011000
 5754       HAL2    45  DPPC   H2R  5754   0.090000   1.008000
 5755       HAL2    45  DPPC   H2S  5755   0.090000   1.008000
 5756       CTL2    45  DPPC    C3  5756   0.080000  12.011000
 5757       HAL2    45  DPPC    HX  5757   0.090000   1.008000
 5758       HAL2    45  DPPC    HY  5758   0.090000   1.008000
 5759        OSL    45  DPPC   O31  5759  -0.490000  15.999400
 5760         CL    45  DPPC   C31  5760   0.900000  12.011000
 5761        OBL    45  DPPC   O32  5761  -0.630000  15.999400
 5762       CTL2    45  DPPC   C32  5762  -0.220000  12.011000
 5763       HAL2    45  DPPC   H2X  5763   0.090000   1.008000
 5764       HAL2    45  DPPC   H2Y  5764   0.090000   1.008000
 5765       CTL2    45  DPPC   C23  5765  -0.180000  12.011000
 5766       HAL2    45  DPPC   H3R  5766   0.090000   1.008000
 5767       HAL2    45  DPPC   H3S  5767   0.090000   1.008000
 5768       CTL2    45  DPPC   C24  5768  -0.180000  12.011000
 5769       HAL2    45  DPPC   H4R  5769   0.090000   1.008000
 5770       HAL2    45  DPPC   H4S  5770   0.090000   1.008000
 5771       CTL2    45  DPPC   C25  5771  -0.180000  12.011000
 5772       HAL2    45  DPPC   H5R  5772   0.090000   1.008000
 5773       HAL2    45  DPPC   H5S  5773   0.090000   1.008000
 5774       CTL2    45  DPPC   C26  5774  -0.180000  12.011000
 5775       HAL2    45  DPPC   H6R  5775   0.090000   1.008000
 5776       HAL2    45  DPPC   H6S  5776   0.090000   1.008000
 5777       CTL2    45  DPPC   C27  5777  -0.180000  12.011000
 5778       HAL2    45  DPPC   H7R  5778   0.090000   1.008000
 5779       HAL2    45  DPPC   H7S  5779   0.090000   1.008000
 5780       CTL2    45  DPPC   C28  5780  -0.180000  12.011000
 5781       HAL2    45  DPPC   H8R  5781   0.090000   1.008000
 5782       HAL2    45  DPPC   H8S  5782   0.090000   1.008000
 5783       CTL2    45  DPPC   C29  5783  -0.180000  12.011000
 5784       HAL2    45  DPPC   H9R  5784   0.090000   1.008000
 5785       HAL2    45  DPPC   H9S  5785   0.090000   1.008000
 5786       CTL2    45  DPPC  C210  5786  -0.180000  12.011000
 5787       HAL2    45  DPPC  H10R  5787   0.090000   1.008000
 5788       HAL2    45  DPPC  H10S  5788   0.090000   1.008000
 5789       CTL2    45  DPPC  C211  5789  -0.180000  12.011000
 5790       HAL2    45  DPPC  H11R  5790   0.090000   1.008000
 5791       HAL2    45  DPPC  H11S  5791   0.090000   1.008000
 5792       CTL2    45  DPPC  C212  5792  -0.180000  12.011000
 5793       HAL2    45  DPPC  H12R  5793   0.090000   1.008000
 5794       HAL2    45  DPPC  H12S  5794   0.090000   1.008000
 5795       CTL2    45  DPPC  C213  5795  -0.180000  12.011000
 5796       HAL2    45  DPPC  H13R  5796   0.090000   1.008000
 5797       HAL2    45  DPPC  H13S  5797   0.090000   1.008000
 5798       CTL2    45  DPPC  C214  5798  -0.180000  12.011000
 5799       HAL2    45  DPPC  H14R  5799   0.090000   1.008000
 5800       HAL2    45  DPPC  H14S  5800   0.090000   1.008000
 5801       CTL2    45  DPPC  C215  5801  -0.180000  12.011000
 5802       HAL2    45  DPPC  H15R  5802   0.090000   1.008000
 5803       HAL2    45  DPPC  H15S  5803   0.090000   1.008000
 5804       CTL3    45  DPPC  C216  5804  -0.270000  12.011000
 5805       HAL3    45  DPPC  H16R  5805   0.090000   1.008000
 5806       HAL3    45  DPPC  H16S  5806   0.090000   1.008000
 5807       HAL3    45  DPPC  H16T  5807   0.090000   1.008000
 5808       CTL2    45  DPPC   C33  5808  -0.180000  12.011000
 5809       HAL2    45  DPPC   H3X  5809   0.090000   1.008000
 5810       HAL2    45  DPPC   H3Y  5810   0.090000   1.008000
 5811       CTL2    45  DPPC   C34  5811  -0.180000  12.011000
 5812       HAL2    45  DPPC   H4X  5812   0.090000   1.008000
 5813       HAL2    45  DPPC   H4Y  5813   0.090000   1.008000
 5814       CTL2    45  DPPC   C35  5814  -0.180000  12.011000
 5815       HAL2    45  DPPC   H5X  5815   0.090000   1.008000
 5816       HAL2    45  DPPC   H5Y  5816   0.090000   1.008000
 5817       CTL2    45  DPPC   C36  5817  -0.180000  12.011000
 5818       HAL2    45  DPPC   H6X  5818   0.090000   1.008000
 5819       HAL2    45  DPPC   H6Y  5819   0.090000   1.008000
 5820       CTL2    45  DPPC   C37  5820  -0.180000  12.011000
 5821       HAL2    45  DPPC   H7X  5821   0.090000   1.008000
 5822       HAL2    45  DPPC   H7Y  5822   0.090000   1.008000
 5823       CTL2    45  DPPC   C38  5823  -0.180000  12.011000
 5824       HAL2    45  DPPC   H8X  5824   0.090000   1.008000
 5825       HAL2    45  DPPC   H8Y  5825   0.090000   1.008000
 5826       CTL2    45  DPPC   C39  5826  -0.180000  12.011000
 5827       HAL2    45  DPPC   H9X  5827   0.090000   1.008000
 5828       HAL2    45  DPPC   H9Y  5828   0.090000   1.008000
 5829       CTL2    45  DPPC  C310  5829  -0.180000  12.011000
 5830       HAL2    45  DPPC  H10X  5830   0.090000   1.008000
 5831       HAL2    45  DPPC  H10Y  5831   0.090000   1.008000
 5832       CTL2    45  DPPC  C311  5832  -0.180000  12.011000
 5833       HAL2    45  DPPC  H11X  5833   0.090000   1.008000
 5834       HAL2    45  DPPC  H11Y  5834   0.090000   1.008000
 5835       CTL2    45  DPPC  C312  5835  -0.180000  12.011000
 5836       HAL2    45  DPPC  H12X  5836   0.090000   1.008000
 5837       HAL2    45  DPPC  H12Y  5837   0.090000   1.008000
 5838       CTL2    45  DPPC  C313  5838  -0.180000  12.011000
 5839       HAL2    45  DPPC  H13X  5839   0.090000   1.008000
 5840       HAL2    45  DPPC  H13Y  5840   0.090000   1.008000
 5841       CTL2    45  DPPC  C314  5841  -0.180000  12.011000
 5842       HAL2    45  DPPC  H14X  5842   0.090000   1.008000
 5843       HAL2    45  DPPC  H14Y  5843   0.090000   1.008000
 5844       CTL2    45  DPPC  C315  5844  -0.180000  12.011000
 5845       HAL2    45  DPPC  H15X  5845   0.090000   1.008000
 5846       HAL2    45  DPPC  H15Y  5846   0.090000   1.008000
 5847       CTL3    45  DPPC  C316  5847  -0.270000  12.011000
 5848       HAL3    45  DPPC  H16X  5848   0.090000   1.008000
 5849       HAL3    45  DPPC  H16Y  5849   0.090000   1.008000
 5850       HAL3    45  DPPC  H16Z  5850   0.090000   1.008000
 5851        NTL    46  DPPC     N  5851  -0.600000  14.007000
 5852       CTL5    46  DPPC   C13  5852  -0.350000  12.011000
 5853         HL    46  DPPC  H13A  5853   0.250000   1.008000
 5854         HL    46  DPPC  H13B  5854   0.250000   1.008000
 5855         HL    46  DPPC  H13C  5855   0.250000   1.008000
 5856       CTL5    46  DPPC   C14  5856  -0.350000  12.011000
 5857         HL    46  DPPC  H14A  5857   0.250000   1.008000
 5858         HL    46  DPPC  H14B  5858   0.250000   1.008000
 5859         HL    46  DPPC  H14C  5859   0.250000   1.008000
 5860       CTL5    46  DPPC   C15  5860  -0.350000  12.011000
 5861         HL    46  DPPC  H15A  5861   0.250000   1.008000
 5862         HL    46  DPPC  H15B  5862   0.250000   1.008000
 5863         HL    46  DPPC  H15C  5863   0.250000   1.008000
 5864       CTL2    46  DPPC   C12  5864  -0.100000  12.011000
 5865         HL    46  DPPC  H12A  5865   0.250000   1.008000
 5866         HL    46  DPPC  H12B  5866   0.250000   1.008000
 5867       CTL2    46  DPPC   C11  5867  -0.080000  12.011000
 5868       HAL2    46  DPPC  H11A  5868   0.090000   1.008000
 5869       HAL2    46  DPPC  H11B  5869   0.090000   1.008000
 5870         PL    46  DPPC     P  5870   1.500000  30.974001
 5871        O2L    46  DPPC   O13  5871  -0.780000  15.999400
 5872        O2L    46  DPPC   O14  5872  -0.780000  15.999400
 5873       OSLP    46  DPPC   O11  5873  -0.570000  15.999400
 5874       OSLP    46  DPPC   O12  5874  -0.570000  15.999400
 5875       CTL2    46  DPPC    C1  5875  -0.080000  12.011000
 5876       HAL2    46  DPPC    HA  5876   0.090000   1.008000
 5877       HAL2    46  DPPC    HB  5877   0.090000   1.008000
 5878       CTL1    46  DPPC    C2  5878   0.170000  12.011000
 5879       HAL1    46  DPPC    HS  5879   0.090000   1.008000
 5880        OSL    46  DPPC   O21  5880  -0.490000  15.999400
 5881         CL    46  DPPC   C21  5881   0.900000  12.011000
 5882        OBL    46  DPPC   O22  5882  -0.630000  15.999400
 5883       CTL2    46  DPPC   C22  5883  -0.220000  12.011000
 5884       HAL2    46  DPPC   H2R  5884   0.090000   1.008000
 5885       HAL2    46  DPPC   H2S  5885   0.090000   1.008000
 5886       CTL2    46  DPPC    C3  5886   0.080000  12.011000
 5887       HAL2    46  DPPC    HX  5887   0.090000   1.008000
 5888       HAL2    46  DPPC    HY  5888   0.090000   1.008000
 5889        OSL    46  DPPC   O31  5889  -0.490000  15.999400
 5890         CL    46  DPPC   C31  5890   0.900000  12.011000
 5891        OBL    46  DPPC   O32  5891  -0.630000  15.999400
 5892       CTL2    46  DPPC   C32  5892  -0.220000  12.011000
 5893       HAL2    46  DPPC   H2X  5893   0.090000   1.008000
 5894       HAL2    46  DPPC   H2Y  5894   0.090000   1.008000
 5895       CTL2    46  DPPC   C23  5895  -0.180000  12.011000
 5896       HAL2    46  DPPC   H3R  5896   0.090000   1.008000
 5897       HAL2    46  DPPC   H3S  5897   0.090000   1.008000
 5898       CTL2    46  DPPC   C24  5898  -0.180000  12.011000
 5899       HAL2    46  DPPC   H4R  5899   0.090000   1.008000
 5900       HAL2    46  DPPC   H4S  5900   0.090000   1.008000
 5901       CTL2    46  DPPC   C25  5901  -0.180000  12.011000
 5902       HAL2    46  DPPC   H5R  5902   0.090000   1.008000
 5903       HAL2    46  DPPC   H5S  5903   0.090000   1.008000
 5904       CTL2    46  DPPC   C26  5904  -0.180000  12.011000
 5905       HAL2    46  DPPC   H6R  5905   0.090000   1.008000
 5906       HAL2    46  DPPC   H6S  5906   0.090000   1.008000
 5907       CTL2    46  DPPC   C27  5907  -0.180000  12.011000
 5908       HAL2    46  DPPC   H7R  5908   0.090000   1.008000
 5909       HAL2    46  DPPC   H7S  5909   0.090000   1.008000
 5910       CTL2    46  DPPC   C28  5910  -0.180000  12.011000
 5911       HAL2    46  DPPC   H8R  5911   0.090000   1.008000
 5912       HAL2    46  DPPC   H8S  5912   0.090000   1.008000
 5913       CTL2    46  DPPC   C29  5913  -0.180000  12.011000
 5914       HAL2    46  DPPC   H9R  5914   0.090000   1.008000
 5915       HAL2    46  DPPC   H9S  5915   0.090000   1.008000
 5916       CTL2    46  DPPC  C210  5916  -0.180000  12.011000
 5917       HAL2    46  DPPC  H10R  5917   0.090000   1.008000
 5918       HAL2    46  DPPC  H10S  5918   0.090000   1.008000
 5919       CTL2    46  DPPC  C211  5919  -0.180000  12.011000
 5920       HAL2    46  DPPC  H11R  5920   0.090000   1.008000
 5921       HAL2    46  DPPC  H11S  5921   0.090000   1.008000
 5922       CTL2    46  DPPC  C212  5922  -0.180000  12.011000
 5923       HAL2    46  DPPC  H12R  5923   0.090000   1.008000
 5924       HAL2    46  DPPC  H12S  5924   0.090000   1.008000
 5925       CTL2    46  DPPC  C213  5925  -0.180000  12.011000
 5926       HAL2    46  DPPC  H13R  5926   0.090000   1.008000
 5927       HAL2    46  DPPC  H13S  5927   0.090000   1.008000
 5928       CTL2    46  DPPC  C214  5928  -0.180000  12.011000
 5929       HAL2    46  DPPC  H14R  5929   0.090000   1.008000
 5930       HAL2    46  DPPC  H14S  5930   0.090000   1.008000
 5931       CTL2    46  DPPC  C215  5931  -0.180000  12.011000
 5932       HAL2    46  DPPC  H15R  5932   0.090000   1.008000
 5933       HAL2    46  DPPC  H15S  5933   0.090000   1.008000
 5934       CTL3    46  DPPC  C216  5934  -0.270000  12.011000
 5935       HAL3    46  DPPC  H16R  5935   0.090000   1.008000
 5936       HAL3    46  DPPC  H16S  5936   0.090000   1.008000
 5937       HAL3    46  DPPC  H16T  5937   0.090000   1.008000
 5938       CTL2    46  DPPC   C33  5938  -0.180000  12.011000
 5939       HAL2    46  DPPC   H3X  5939   0.090000   1.008000
 5940       HAL2    46  DPPC   H3Y  5940   0.090000   1.008000
 5941       CTL2    46  DPPC   C34  5941  -0.180000  12.011000
 5942       HAL2    46  DPPC   H4X  5942   0.090000   1.008000
 5943       HAL2    46  DPPC   H4Y  5943   0.090000   1.008000
 5944       CTL2    46  DPPC   C35  5944  -0.180000  12.011000
 5945       HAL2    46  DPPC   H5X  5945   0.090000   1.008000
 5946       HAL2    46  DPPC   H5Y  5946   0.090000   1.008000
 5947       CTL2    46  DPPC   C36  5947  -0.180000  12.011000
 5948       HAL2    46  DPPC   H6X  5948   0.090000   1.008000
 5949       HAL2    46  DPPC   H6Y  5949   0.090000   1.008000
 5950       CTL2    46  DPPC   C37  5950  -0.180000  12.011000
 5951       HAL2    46  DPPC   H7X  5951   0.090000   1.008000
 5952       HAL2    46  DPPC   H7Y  5952   0.090000   1.008000
 5953       CTL2    46  DPPC   C38  5953  -0.180000  12.011000
 5954       HAL2    46  DPPC   H8X  5954   0.090000   1.008000
 5955       HAL2    46  DPPC   H8Y  5955   0.090000   1.008000
 5956       CTL2    46  DPPC   C39  5956  -0.180000  12.011000
 5957       HAL2    46  DPPC   H9X  5957   0.090000   1.008000
 5958       HAL2    46  DPPC   H9Y  5958   0.090000   1.008000
 5959       CTL2    46  DPPC  C310  5959  -0.180000  12.011000
 5960       HAL2    46  DPPC  H10X  5960   0.090000   1.008000
 5961       HAL2    46  DPPC  H10Y  5961   0.090000   1.008000
 5962       CTL2    46  DPPC  C311  5962  -0.180000  12.011000
 5963       HAL2    46  DPPC  H11X  5963   0.090000   1.008000
 5964       HAL2    46  DPPC  H11Y  5964   0.090000   1.008000
 5965       CTL2    46  DPPC  C312  5965  -0.180000  12.011000
 5966       HAL2    46  DPPC  H12X  5966   0.090000   1.008000
 5967       HAL2    46  DPPC  H12Y  5967   0.090000   1.008000
 5968       CTL2    46  DPPC  C313  5968  -0.180000  12.011000
 5969       HAL2    46  DPPC  H13X  5969   0.090000   1.008000
 5970       HAL2    46  DPPC  H13Y  5970   0.090000   1.008000
 5971       CTL2    46  DPPC  C314  5971  -0.180000  12.011000
 5972       HAL2    46  DPPC  H14X  5972   0.090000   1.008000
 5973       HAL2    46  DPPC  H14Y  5973   0.090000   1.008000
 5974       CTL2    46  DPPC  C315  5974  -0.180000  12.011000
 5975       HAL2    46  DPPC  H15X  5975   0.090000   1.008000
 5976       HAL2    46  DPPC  H15Y  5976   0.090000   1.008000
 5977       CTL3    46  DPPC  C316  5977  -0.270000  12.011000
 5978       HAL3    46  DPPC  H16X  5978   0.090000   1.008000
 5979       HAL3    46  DPPC  H16Y  5979   0.090000   1.008000
 5980       HAL3    46  DPPC  H16Z  5980   0.090000   1.008000
 5981        NTL    47  DPPC     N  5981  -0.600000  14.007000
 5982       CTL5    47  DPPC   C13  5982  -0.350000  12.011000
 5983         HL    47  DPPC  H13A  5983   0.250000   1.008000
 5984         HL    47  DPPC  H13B  5984   0.250000   1.008000
 5985         HL    47  DPPC  H13C  5985   0.250000   1.008000
 5986       CTL5    47  DPPC   C14  5986  -0.350000  12.011000
 5987         HL    47  DPPC  H14A  5987   0.250000   1.008000
 5988         HL    47  DPPC  H14B  5988   0.250000   1.008000
 5989         HL    47  DPPC  H14C  5989   0.250000   1.008000
 5990       CTL5    47  DPPC   C15  5990  -0.350000  12.011000
 5991         HL    47  DPPC  H15A  5991   0.250000   1.008000
 5992         HL    47  DPPC  H15B  5992   0.250000   1.008000
 5993         HL    47  DPPC  H15C  5993   0.250000   1.008000
 5994       CTL2    47  DPPC   C12  5994  -0.100000  12.011000
 5995         HL    47  DPPC  H12A  5995   0.250000   1.008000
 5996         HL    47  DPPC  H12B  5996   0.250000   1.008000
 5997       CTL2    47  DPPC   C11  5997  -0.080000  12.011000
 5998       HAL2    47  DPPC  H11A  5998   0.090000   1.008000
 5999       HAL2    47  DPPC  H11B  5999   0.090000   1.008000
 6000         PL    47  DPPC     P  6000   1.500000  30.974001
 6001        O2L    47  DPPC   O13  6001  -0.780000  15.999400
 6002        O2L    47  DPPC   O14  6002  -0.780000  15.999400
 6003       OSLP    47  DPPC   O11  6003  -0.570000  15.999400
 6004       OSLP    47  DPPC   O12  6004  -0.570000  15.999400
 6005       CTL2    47  DPPC    C1  6005  -0.080000  12.011000
 6006       HAL2    47  DPPC    HA  6006   0.090000   1.008000
 6007       HAL2    47  DPPC    HB  6007   0.090000   1.008000
 6008       CTL1    47  DPPC    C2  6008   0.170000  12.011000
 6009       HAL1    47  DPPC    HS  6009   0.090000   1.008000
 6010        OSL    47  DPPC   O21  6010  -0.490000  15.999400
 6011         CL    47  DPPC   C21  6011   0.900000  12.011000
 6012        OBL    47  DPPC   O22  6012  -0.630000  15.999400
 6013       CTL2    47  DPPC   C22  6013  -0.220000  12.011000
 6014       HAL2    47  DPPC   H2R  6014   0.090000   1.008000
 6015       HAL2    47  DPPC   H2S  6015   0.090000   1.008000
 6016       CTL2    47  DPPC    C3  6016   0.080000  12.011000
 6017       HAL2    47  DPPC    HX  6017   0.090000   1.008000
 6018       HAL2    47  DPPC    HY  6018   0.090000   1.008000
 6019        OSL    47  DPPC   O31  6019  -0.490000  15.999400
 6020         CL    47  DPPC   C31  6020   0.900000  12.011000
 6021        OBL    47  DPPC   O32  6021  -0.630000  15.999400
 6022       CTL2    47  DPPC   C32  6022  -0.220000  12.011000
 6023       HAL2    47  DPPC   H2X  6023   0.090000   1.008000
 6024       HAL2    47  DPPC   H2Y  6024   0.090000   1.008000
 6025       CTL2    47  DPPC   C23  6025  -0.180000  12.011000
 6026       HAL2    47  DPPC   H3R  6026   0.090000   1.008000
 6027       HAL2    47  DPPC   H3S  6027   0.090000   1.008000
 6028       CTL2    47  DPPC   C24  6028  -0.180000  12.011000
 6029       HAL2    47  DPPC   H4R  6029   0.090000   1.008000
 6030       HAL2    47  DPPC   H4S  6030   0.090000   1.008000
 6031       CTL2    47  DPPC   C25  6031  -0.180000  12.011000
 6032       HAL2    47  DPPC   H5R  6032   0.090000   1.008000
 6033       HAL2    47  DPPC   H5S  6033   0.090000   1.008000
 6034       CTL2    47  DPPC   C26  6034  -0.180000  12.011000
 6035       HAL2    47  DPPC   H6R  6035   0.090000   1.008000
 6036       HAL2    47  DPPC   H6S  6036   0.090000   1.008000
 6037       CTL2    47  DPPC   C27  6037  -0.180000  12.011000
 6038       HAL2    47  DPPC   H7R  6038   0.090000   1.008000
 6039       HAL2    47  DPPC   H7S  6039   0.090000   1.008000
 6040       CTL2    47  DPPC   C28  6040  -0.180000  12.011000
 6041       HAL2    47  DPPC   H8R  6041   0.090000   1.008000
 6042       HAL2    47  DPPC   H8S  6042   0.090000   1.008000
 6043       CTL2    47  DPPC   C29  6043  -0.180000  12.011000
 6044       HAL2    47  DPPC   H9R  6044   0.090000   1.008000
 6045       HAL2    47  DPPC   H9S  6045   0.090000   1.008000
 6046       CTL2    47  DPPC  C210  6046  -0.180000  12.011000
 6047       HAL2    47  DPPC  H10R  6047   0.090000   1.008000
 6048       HAL2    47  DPPC  H10S  6048   0.090000   1.008000
 6049       CTL2    47  DPPC  C211  6049  -0.180000  12.011000
 6050       HAL2    47  DPPC  H11R  6050   0.090000   1.008000
 6051       HAL2    47  DPPC  H11S  6051   0.090000   1.008000
 6052       CTL2    47  DPPC  C212  6052  -0.180000  12.011000
 6053       HAL2    47  DPPC  H12R  6053   0.090000   1.008000
 6054       HAL2    47  DPPC  H12S  6054   0.090000   1.008000
 6055       CTL2    47  DPPC  C213  6055  -0.180000  12.011000
 6056       HAL2    47  DPPC  H13R  6056   0.090000   1.008000
 6057       HAL2    47  DPPC  H13S  6057   0.090000   1.008000
 6058       CTL2    47  DPPC  C214  6058  -0.180000  12.011000
 6059       HAL2    47  DPPC  H14R  6059   0.090000   1.008000
 6060       HAL2    47  DPPC  H14S  6060   0.090000   1.008000
 6061       CTL2    47  DPPC  C215  6061  -0.180000  12.011000
 6062       HAL2    47  DPPC  H15R  6062   0.090000   1.008000
 6063       HAL2    47  DPPC  H15S  6063   0.090000   1.008000
 6064       CTL3    47  DPPC  C216  6064  -0.270000  12.011000
 6065       HAL3    47  DPPC  H16R  6065   0.090000   1.008000
 6066       HAL3    47  DPPC  H16S  6066   0.090000   1.008000
 6067       HAL3    47  DPPC  H16T  6067   0.090000   1.008000
 6068       CTL2    47  DPPC   C33  6068  -0.180000  12.011000
 6069       HAL2    47  DPPC   H3X  6069   0.090000   1.008000
 6070       HAL2    47  DPPC   H3Y  6070   0.090000   1.008000
 6071       CTL2    47  DPPC   C34  6071  -0.180000  12.011000
 6072       HAL2    47  DPPC   H4X  6072   0.090000   1.008000
 6073       HAL2    47  DPPC   H4Y  6073   0.090000   1.008000
 6074       CTL2    47  DPPC   C35  6074  -0.180000  12.011000
 6075       HAL2    47  DPPC   H5X  6075   0.090000   1.008000
 6076       HAL2    47  DPPC   H5Y  6076   0.090000   1.008000
 6077       CTL2    47  DPPC   C36  6077  -0.180000  12.011000
 6078       HAL2    47  DPPC   H6X  6078   0.090000   1.008000
 6079       HAL2    47  DPPC   H6Y  6079   0.090000   1.008000
 6080       CTL2    47  DPPC   C37  6080  -0.180000  12.011000
 6081       HAL2    47  DPPC   H7X  6081   0.090000   1.008000
 6082       HAL2    47  DPPC   H7Y  6082   0.090000   1.008000
 6083       CTL2    47  DPPC   C38  6083  -0.180000  12.011000
 6084       HAL2    47  DPPC   H8X  6084   0.090000   1.008000
 6085       HAL2    47  DPPC   H8Y  6085   0.090000   1.008000
 6086       CTL2    47  DPPC   C39  6086  -0.180000  12.011000
 6087       HAL2    47  DPPC   H9X  6087   0.090000   1.008000
 6088       HAL2    47  DPPC   H9Y  6088   0.090000   1.008000
 6089       CTL2    47  DPPC  C310  6089  -0.180000  12.011000
 6090       HAL2    47  DPPC  H10X  6090   0.090000   1.008000
 6091       HAL2    47  DPPC  H10Y  6091   0.090000   1.008000
 6092       CTL2    47  DPPC  C311  6092  -0.180000  12.011000
 6093       HAL2    47  DPPC  H11X  6093   0.090000   1.008000
 6094       HAL2    47  DPPC  H11Y  6094   0.090000   1.008000
 6095       CTL2    47  DPPC  C312  6095  -0.180000  12.011000
 6096       HAL2    47  DPPC  H12X  6096   0.090000   1.008000
 6097       HAL2    47  DPPC  H12Y  6097   0.090000   1.008000
 6098       CTL2    47  DPPC  C313  6098  -0.180000  12.011000
 6099       HAL2    47  DPPC  H13X  6099   0.090000   1.008000
 6100       HAL2    47  DPPC  H13Y  6100   0.090000   1.008000
 6101       CTL2    47  DPPC  C314  6101  -0.180000  12.011000
 6102       HAL2    47  DPPC  H14X  6102   0.090000   1.008000
 6103       HAL2    47  DPPC  H14Y  6103   0.090000   1.008000
 6104       CTL2    47  DPPC  C315  6104  -0.180000  12.011000
 6105       HAL2    47  DPPC  H15X  6105   0.090000   1.008000
 6106       HAL2    47  DPPC  H15Y  6106   0.090000   1.008000
 6107       CTL3    47  DPPC  C316  6107  -0.270000  12.011000
 6108       HAL3    47  DPPC  H16X  6108   0.090000   1.008000
 6109       HAL3    47  DPPC  H16Y  6109   0.090000   1.008000
 6110       HAL3    47  DPPC  H16Z  6110   0.090000   1.008000
 6111        NTL    48  DPPC     N  6111  -0.600000  14.007000
 6112       CTL5    48  DPPC   C13  6112  -0.350000  12.011000
 6113         HL    48  DPPC  H13A  6113   0.250000   1.008000
 6114         HL    48  DPPC  H13B  6114   0.250000   1.008000
 6115         HL    48  DPPC  H13C  6115   0.250000   1.008000
 6116       CTL5    48  DPPC   C14  6116  -0.350000  12.011000
 6117         HL    48  DPPC  H14A  6117   0.250000   1.008000
 6118         HL    48  DPPC  H14B  6118   0.250000   1.008000
 6119         HL    48  DPPC  H14C  6119   0.250000   1.008000
 6120       CTL5    48  DPPC   C15  6120  -0.350000  12.011000
 6121         HL    48  DPPC  H15A  6121   0.250000   1.008000
 6122         HL    48  DPPC  H15B  6122   0.250000   1.008000
 6123         HL    48  DPPC  H15C  6123   0.250000   1.008000
 6124       CTL2    48  DPPC   C12  6124  -0.100000  12.011000
 6125         HL    48  DPPC  H12A  6125   0.250000   1.008000
 6126         HL    48  DPPC  H12B  6126   0.250000   1.008000
 6127       CTL2    48  DPPC   C11  6127  -0.080000  12.011000
 6128       HAL2    48  DPPC  H11A  6128   0.090000   1.008000
 6129       HAL2    48  DPPC  H11B  6129   0.090000   1.008000
 6130         PL    48  DPPC     P  6130   1.500000  30.974001
 6131        O2L    48  DPPC   O13  6131  -0.780000  15.999400
 6132        O2L    48  DPPC   O14  6132  -0.780000  15.999400
 6133       OSLP    48  DPPC   O11  6133  -0.570000  15.999400
 6134       OSLP    48  DPPC   O12  6134  -0.570000  15.999400
 6135       CTL2    48  DPPC    C1  6135  -0.080000  12.011000
 6136       HAL2    48  DPPC    HA  6136   0.090000   1.008000
 6137       HAL2    48  DPPC    HB  6137   0.090000   1.008000
 6138       CTL1    48  DPPC    C2  6138   0.170000  12.011000
 6139       HAL1    48  DPPC    HS  6139   0.090000   1.008000
 6140        OSL    48  DPPC   O21  6140  -0.490000  15.999400
 6141         CL    48  DPPC   C21  6141   0.900000  12.011000
 6142        OBL    48  DPPC   O22  6142  -0.630000  15.999400
 6143       CTL2    48  DPPC   C22  6143  -0.220000  12.011000
 6144       HAL2    48  DPPC   H2R  6144   0.090000   1.008000
 6145       HAL2    48  DPPC   H2S  6145   0.090000   1.008000
 6146       CTL2    48  DPPC    C3  6146   0.080000  12.011000
 6147       HAL2    48  DPPC    HX  6147   0.090000   1.008000
 6148       HAL2    48  DPPC    HY  6148   0.090000   1.008000
 6149        OSL    48  DPPC   O31  6149  -0.490000  15.999400
 6150         CL    48  DPPC   C31  6150   0.900000  12.011000
 6151        OBL    48  DPPC   O32  6151  -0.630000  15.999400
 6152       CTL2    48  DPPC   C32  6152  -0.220000  12.011000
 6153       HAL2    48  DPPC   H2X  6153   0.090000   1.008000
 6154       HAL2    48  DPPC   H2Y  6154   0.090000   1.008000
 6155       CTL2    48  DPPC   C23  6155  -0.180000  12.011000
 6156       HAL2    48  DPPC   H3R  6156   0.090000   1.008000
 6157       HAL2    48  DPPC   H3S  6157   0.090000   1.008000
 6158       CTL2    48  DPPC   C24  6158  -0.180000  12.011000
 6159       HAL2    48  DPPC   H4R  6159   0.090000   1.008000
 6160       HAL2    48  DPPC   H4S  6160   0.090000   1.008000
 6161       CTL2    48  DPPC   C25  6161  -0.180000  12.011000
 6162       HAL2    48  DPPC   H5R  6162   0.090000   1.008000
 6163       HAL2    48  DPPC   H5S  6163   0.090000   1.008000
 6164       CTL2    48  DPPC   C26  6164  -0.180000  12.011000
 6165       HAL2    48  DPPC   H6R  6165   0.090000   1.008000
 6166       HAL2    48  DPPC   H6S  6166   0.090000   1.008000
 6167       CTL2    48  DPPC   C27  6167  -0.180000  12.011000
 6168       HAL2    48  DPPC   H7R  6168   0.090000   1.008000
 6169       HAL2    48  DPPC   H7S  6169   0.090000   1.008000
 6170       CTL2    48  DPPC   C28  6170  -0.180000  12.011000
 6171       HAL2    48  DPPC   H8R  6171   0.090000   1.008000
 6172       HAL2    48  DPPC   H8S  6172   0.090000   1.008000
 6173       CTL2    48  DPPC   C29  6173  -0.180000  12.011000
 6174       HAL2    48  DPPC   H9R  6174   0.090000   1.008000
 6175       HAL2    48  DPPC   H9S  6175   0.090000   1.008000
 6176       CTL2    48  DPPC  C210  6176  -0.180000  12.011000
 6177       HAL2    48  DPPC  H10R  6177   0.090000   1.008000
 6178       HAL2    48  DPPC  H10S  6178   0.090000   1.008000
 6179       CTL2    48  DPPC  C211  6179  -0.180000  12.011000
 6180       HAL2    48  DPPC  H11R  6180   0.090000   1.008000
 6181       HAL2    48  DPPC  H11S  6181   0.090000   1.008000
 6182       CTL2    48  DPPC  C212  6182  -0.180000  12.011000
 6183       HAL2    48  DPPC  H12R  6183   0.090000   1.008000
 6184       HAL2    48  DPPC  H12S  6184   0.090000   1.008000
 6185       CTL2    48  DPPC  C213  6185  -0.180000  12.011000
 6186       HAL2    48  DPPC  H13R  6186   0.090000   1.008000
 6187       HAL2    48  DPPC  H13S  6187   0.090000   1.008000
 6188       CTL2    48  DPPC  C214  6188  -0.180000  12.011000
 6189       HAL2    48  DPPC  H14R  6189   0.090000   1.008000
 6190       HAL2    48  DPPC  H14S  6190   0.090000   1.008000
 6191       CTL2    48  DPPC  C215  6191  -0.180000  12.011000
 6192       HAL2    48  DPPC  H15R  6192   0.090000   1.008000
 6193       HAL2    48  DPPC  H15S  6193   0.090000   1.008000
 6194       CTL3    48  DPPC  C216  6194  -0.270000  12.011000
 6195       HAL3    48  DPPC  H16R  6195   0.090000   1.008000
 6196       HAL3    48  DPPC  H16S  6196   0.090000   1.008000
 6197       HAL3    48  DPPC  H16T  6197   0.090000   1.008000
 6198       CTL2    48  DPPC   C33  6198  -0.180000  12.011000
 6199       HAL2    48  DPPC   H3X  6199   0.090000   1.008000
 6200       HAL2    48  DPPC   H3Y  6200   0.090000   1.008000
 6201       CTL2    48  DPPC   C34  6201  -0.180000  12.011000
 6202       HAL2    48  DPPC   H4X  6202   0.090000   1.008000
 6203       HAL2    48  DPPC   H4Y  6203   0.090000   1.008000
 6204       CTL2    48  DPPC   C35  6204  -0.180000  12.011000
 6205       HAL2    48  DPPC   H5X  6205   0.090000   1.008000
 6206       HAL2    48  DPPC   H5Y  6206   0.090000   1.008000
 6207       CTL2    48  DPPC   C36  6207  -0.180000  12.011000
 6208       HAL2    48  DPPC   H6X  6208   0.090000   1.008000
 6209       HAL2    48  DPPC   H6Y  6209   0.090000   1.008000
 6210       CTL2    48  DPPC   C37  6210  -0.180000  12.011000
 6211       HAL2    48  DPPC   H7X  6211   0.090000   1.008000
 6212       HAL2    48  DPPC   H7Y  6212   0.090000   1.008000
 6213       CTL2    48  DPPC   C38  6213  -0.180000  12.011000
 6214       HAL2    48  DPPC   H8X  6214   0.090000   1.008000
 6215       HAL2    48  DPPC   H8Y  6215   0.090000   1.008000
 6216       CTL2    48  DPPC   C39  6216  -0.180000  12.011000
 6217       HAL2    48  DPPC   H9X  6217   0.090000   1.008000
 6218       HAL2    48  DPPC   H9Y  6218   0.090000   1.008000
 6219       CTL2    48  DPPC  C310  6219  -0.180000  12.011000
 6220       HAL2    48  DPPC  H10X  6220   0.090000   1.008000
 6221       HAL2    48  DPPC  H10Y  6221   0.090000   1.008000
 6222       CTL2    48  DPPC  C311  6222  -0.180000  12.011000
 6223       HAL2    48  DPPC  H11X  6223   0.090000   1.008000
 6224       HAL2    48  DPPC  H11Y  6224   0.090000   1.008000
 6225       CTL2    48  DPPC  C312  6225  -0.180000  12.011000
 6226       HAL2    48  DPPC  H12X  6226   0.090000   1.008000
 6227       HAL2    48  DPPC  H12Y  6227   0.090000   1.008000
 6228       CTL2    48  DPPC  C313  6228  -0.180000  12.011000
 6229       HAL2    48  DPPC  H13X  6229   0.090000   1.008000
 6230       HAL2    48  DPPC  H13Y  6230   0.090000   1.008000
 6231       CTL2    48  DPPC  C314  6231  -0.180000  12.011000
 6232       HAL2    48  DPPC  H14X  6232   0.090000   1.008000
 6233       HAL2    48  DPPC  H14Y  6233   0.090000   1.008000
 6234       CTL2    48  DPPC  C315  6234  -0.180000  12.011000
 6235       HAL2    48  DPPC  H15X  6235   0.090000   1.008000
 6236       HAL2    48  DPPC  H15Y  6236   0.090000   1.008000
 6237       CTL3    48  DPPC  C316  6237  -0.270000  12.011000
 6238       HAL3    48  DPPC  H16X  6238   0.090000   1.008000
 6239       HAL3    48  DPPC  H16Y  6239   0.090000   1.008000
 6240       HAL3    48  DPPC  H16Z  6240   0.090000   1.008000
 6241        NTL    49  DPPC     N  6241  -0.600000  14.007000
 6242       CTL5    49  DPPC   C13  6242  -0.350000  12.011000
 6243         HL    49  DPPC  H13A  6243   0.250000   1.008000
 6244         HL    49  DPPC  H13B  6244   0.250000   1.008000
 6245         HL    49  DPPC  H13C  6245   0.250000   1.008000
 6246       CTL5    49  DPPC   C14  6246  -0.350000  12.011000
 6247         HL    49  DPPC  H14A  6247   0.250000   1.008000
 6248         HL    49  DPPC  H14B  6248   0.250000   1.008000
 6249         HL    49  DPPC  H14C  6249   0.250000   1.008000
 6250       CTL5    49  DPPC   C15  6250  -0.350000  12.011000
 6251         HL    49  DPPC  H15A  6251   0.250000   1.008000
 6252         HL    49  DPPC  H15B  6252   0.250000   1.008000
 6253         HL    49  DPPC  H15C  6253   0.250000   1.008000
 6254       CTL2    49  DPPC   C12  6254  -0.100000  12.011000
 6255         HL    49  DPPC  H12A  6255   0.250000   1.008000
 6256         HL    49  DPPC  H12B  6256   0.250000   1.008000
 6257       CTL2    49  DPPC   C11  6257  -0.080000  12.011000
 6258       HAL2    49  DPPC  H11A  6258   0.090000   1.008000
 6259       HAL2    49  DPPC  H11B  6259   0.090000   1.008000
 6260         PL    49  DPPC     P  6260   1.500000  30.974001
 6261        O2L    49  DPPC   O13  6261  -0.780000  15.999400
 6262        O2L    49  DPPC   O14  6262  -0.780000  15.999400
 6263       OSLP    49  DPPC   O11  6263  -0.570000  15.999400
 6264       OSLP    49  DPPC   O12  6264  -0.570000  15.999400
 6265       CTL2    49  DPPC    C1  6265  -0.080000  12.011000
 6266       HAL2    49  DPPC    HA  6266   0.090000   1.008000
 6267       HAL2    49  DPPC    HB  6267   0.090000   1.008000
 6268       CTL1    49  DPPC    C2  6268   0.170000  12.011000
 6269       HAL1    49  DPPC    HS  6269   0.090000   1.008000
 6270        OSL    49  DPPC   O21  6270  -0.490000  15.999400
 6271         CL    49  DPPC   C21  6271   0.900000  12.011000
 6272        OBL    49  DPPC   O22  6272  -0.630000  15.999400
 6273       CTL2    49  DPPC   C22  6273  -0.220000  12.011000
 6274       HAL2    49  DPPC   H2R  6274   0.090000   1.008000
 6275       HAL2    49  DPPC   H2S  6275   0.090000   1.008000
 6276       CTL2    49  DPPC    C3  6276   0.080000  12.011000
 6277       HAL2    49  DPPC    HX  6277   0.090000   1.008000
 6278       HAL2    49  DPPC    HY  6278   0.090000   1.008000
 6279        OSL    49  DPPC   O31  6279  -0.490000  15.999400
 6280         CL    49  DPPC   C31  6280   0.900000  12.011000
 6281        OBL    49  DPPC   O32  6281  -0.630000  15.999400
 6282       CTL2    49  DPPC   C32  6282  -0.220000  12.011000
 6283       HAL2    49  DPPC   H2X  6283   0.090000   1.008000
 6284       HAL2    49  DPPC   H2Y  6284   0.090000   1.008000
 6285       CTL2    49  DPPC   C23  6285  -0.180000  12.011000
 6286       HAL2    49  DPPC   H3R  6286   0.090000   1.008000
 6287       HAL2    49  DPPC   H3S  6287   0.090000   1.008000
 6288       CTL2    49  DPPC   C24  6288  -0.180000  12.011000
 6289       HAL2    49  DPPC   H4R  6289   0.090000   1.008000
 6290       HAL2    49  DPPC   H4S  6290   0.090000   1.008000
 6291       CTL2    49  DPPC   C25  6291  -0.180000  12.011000
 6292       HAL2    49  DPPC   H5R  6292   0.090000   1.008000
 6293       HAL2    49  DPPC   H5S  6293   0.090000   1.008000
 6294       CTL2    49  DPPC   C26  6294  -0.180000  12.011000
 6295       HAL2    49  DPPC   H6R  6295   0.090000   1.008000
 6296       HAL2    49  DPPC   H6S  6296   0.090000   1.008000
 6297       CTL2    49  DPPC   C27  6297  -0.180000  12.011000
 6298       HAL2    49  DPPC   H7R  6298   0.090000   1.008000
 6299       HAL2    49  DPPC   H7S  6299   0.090000   1.008000
 6300       CTL2    49  DPPC   C28  6300  -0.180000  12.011000
 6301       HAL2    49  DPPC   H8R  6301   0.090000   1.008000
 6302       HAL2    49  DPPC   H8S  6302   0.090000   1.008000
 6303       CTL2    49  DPPC   C29  6303  -0.180000  12.011000
 6304       HAL2    49  DPPC   H9R  6304   0.090000   1.008000
 6305       HAL2    49  DPPC   H9S  6305   0.090000   1.008000
 6306       CTL2    49  DPPC  C210  6306  -0.180000  12.011000
 6307       HAL2    49  DPPC  H10R  6307   0.090000   1.008000
 6308       HAL2    49  DPPC  H10S  6308   0.090000   1.008000
 6309       CTL2    49  DPPC  C211  6309  -0.180000  12.011000
 6310       HAL2    49  DPPC  H11R  6310   0.090000   1.008000
 6311       HAL2    49  DPPC  H11S  6311   0.090000   1.008000
 6312       CTL2    49  DPPC  C212  6312  -0.180000  12.011000
 6313       HAL2    49  DPPC  H12R  6313   0.090000   1.008000
 6314       HAL2    49  DPPC  H12S  6314   0.090000   1.008000
 6315       CTL2    49  DPPC  C213  6315  -0.180000  12.011000
 6316       HAL2    49  DPPC  H13R  6316   0.090000   1.008000
 6317       HAL2    49  DPPC  H13S  6317   0.090000   1.008000
 6318       CTL2    49  DPPC  C214  6318  -0.180000  12.011000
 6319       HAL2    49  DPPC  H14R  6319   0.090000   1.008000
 6320       HAL2    49  DPPC  H14S  6320   0.090000   1.008000
 6321       CTL2    49  DPPC  C215  6321  -0.180000  12.011000
 6322       HAL2    49  DPPC  H15R  6322   0.090000   1.008000
 6323       HAL2    49  DPPC  H15S  6323   0.090000   1.008000
 6324       CTL3    49  DPPC  C216  6324  -0.270000  12.011000
 6325       HAL3    49  DPPC  H16R  6325   0.090000   1.008000
 6326       HAL3    49  DPPC  H16S  6326   0.090000   1.008000
 6327       HAL3    49  DPPC  H16T  6327   0.090000   1.008000
 6328       CTL2    49  DPPC   C33  6328  -0.180000  12.011000
 6329       HAL2    49  DPPC   H3X  6329   0.090000   1.008000
 6330       HAL2    49  DPPC   H3Y  6330   0.090000   1.008000
 6331       CTL2    49  DPPC   C34  6331  -0.180000  12.011000
 6332       HAL2    49  DPPC   H4X  6332   0.090000   1.008000
 6333       HAL2    49  DPPC   H4Y  6333   0.090000   1.008000
 6334       CTL2    49  DPPC   C35  6334  -0.180000  12.011000
 6335       HAL2    49  DPPC   H5X  6335   0.090000   1.008000
 6336       HAL2    49  DPPC   H5Y  6336   0.090000   1.008000
 6337       CTL2    49  DPPC   C36  6337  -0.180000  12.011000
 6338       HAL2    49  DPPC   H6X  6338   0.090000   1.008000
 6339       HAL2    49  DPPC   H6Y  6339   0.090000   1.008000
 6340       CTL2    49  DPPC   C37  6340  -0.180000  12.011000
 6341       HAL2    49  DPPC   H7X  6341   0.090000   1.008000
 6342       HAL2    49  DPPC   H7Y  6342   0.090000   1.008000
 6343       CTL2    49  DPPC   C38  6343  -0.180000  12.011000
 6344       HAL2    49  DPPC   H8X  6344   0.090000   1.008000
 6345       HAL2    49  DPPC   H8Y  6345   0.090000   1.008000
 6346       CTL2    49  DPPC   C39  6346  -0.180000  12.011000
 6347       HAL2    49  DPPC   H9X  6347   0.090000   1.008000
 6348       HAL2    49  DPPC   H9Y  6348   0.090000   1.008000
 6349       CTL2    49  DPPC  C310  6349  -0.180000  12.011000
 6350       HAL2    49  DPPC  H10X  6350   0.090000   1.008000
 6351       HAL2    49  DPPC  H10Y  6351   0.090000   1.008000
 6352       CTL2    49  DPPC  C311  6352  -0.180000  12.011000
 6353       HAL2    49  DPPC  H11X  6353   0.090000   1.008000
 6354       HAL2    49  DPPC  H11Y  6354   0.090000   1.008000
 6355       CTL2    49  DPPC  C312  6355  -0.180000  12.011000
 6356       HAL2    49  DPPC  H12X  6356   0.090000   1.008000
 6357       HAL2    49  DPPC  H12Y  6357   0.090000   1.008000
 6358       CTL2    49  DPPC  C313  6358  -0.180000  12.011000
 6359       HAL2    49  DPPC  H13X  6359   0.090000   1.008000
 6360       HAL2    49  DPPC  H13Y  6360   0.090000   1.008000
 6361       CTL2    49  DPPC  C314  6361  -0.180000  12.011000
 6362       HAL2    49  DPPC  H14X  6362   0.090000   1.008000
 6363       HAL2    49  DPPC  H14Y  6363   0.090000   1.008000
 6364       CTL2    49  DPPC  C315  6364  -0.180000  12.011000
 6365       HAL2    49  DPPC  H15X  6365   0.090000   1.008000
 6366       HAL2    49  DPPC  H15Y  6366   0.090000   1.008000
 6367       CTL3    49  DPPC  C316  6367  -0.270000  12.011000
 6368       HAL3    49  DPPC  H16X  6368   0.090000   1.008000
 6369       HAL3    49  DPPC  H16Y  6369   0.090000   1.008000
 6370       HAL3    49  DPPC  H16Z  6370   0.090000   1.008000
 6371        NTL    50  DPPC     N  6371  -0.600000  14.007000
 6372       CTL5    50  DPPC   C13  6372  -0.350000  12.011000
 6373         HL    50  DPPC  H13A  6373   0.250000   1.008000
 6374         HL    50  DPPC  H13B  6374   0.250000   1.008000
 6375         HL    50  DPPC  H13C  6375   0.250000   1.008000
 6376       CTL5    50  DPPC   C14  6376  -0.350000  12.011000
 6377         HL    50  DPPC  H14A  6377   0.250000   1.008000
 6378         HL    50  DPPC  H14B  6378   0.250000   1.008000
 6379         HL    50  DPPC  H14C  6379   0.250000   1.008000
 6380       CTL5    50  DPPC   C15  6380  -0.350000  12.011000
 6381         HL    50  DPPC  H15A  6381   0.250000   1.008000
 6382         HL    50  DPPC  H15B  6382   0.250000   1.008000
 6383         HL    50  DPPC  H15C  6383   0.250000   1.008000
 6384       CTL2    50  DPPC   C12  6384  -0.100000  12.011000
 6385         HL    50  DPPC  H12A  6385   0.250000   1.008000
 6386         HL    50  DPPC  H12B  6386   0.250000   1.008000
 6387       CTL2    50  DPPC   C11  6387  -0.080000  12.011000
 6388       HAL2    50  DPPC  H11A  6388   0.090000   1.008000
 6389       HAL2    50  DPPC  H11B  6389   0.090000   1.008000
 6390         PL    50  DPPC     P  6390   1.500000  30.974001
 6391        O2L    50  DPPC   O13  6391  -0.780000  15.999400
 6392        O2L    50  DPPC   O14  6392  -0.780000  15.999400
 6393       OSLP    50  DPPC   O11  6393  -0.570000  15.999400
 6394       OSLP    50  DPPC   O12  6394  -0.570000  15.999400
 6395       CTL2    50  DPPC    C1  6395  -0.080000  12.011000
 6396       HAL2    50  DPPC    HA  6396   0.090000   1.008000
 6397       HAL2    50  DPPC    HB  6397   0.090000   1.008000
 6398       CTL1    50  DPPC    C2  6398   0.170000  12.011000
 6399       HAL1    50  DPPC    HS  6399   0.090000   1.008000
 6400        OSL    50  DPPC   O21  6400  -0.490000  15.999400
 6401         CL    50  DPPC   C21  6401   0.900000  12.011000
 6402        OBL    50  DPPC   O22  6402  -0.630000  15.999400
 6403       CTL2    50  DPPC   C22  6403  -0.220000  12.011000
 6404       HAL2    50  DPPC   H2R  6404   0.090000   1.008000
 6405       HAL2    50  DPPC   H2S  6405   0.090000   1.008000
 6406       CTL2    50  DPPC    C3  6406   0.080000  12.011000
 6407       HAL2    50  DPPC    HX  6407   0.090000   1.008000
 6408       HAL2    50  DPPC    HY  6408   0.090000   1.008000
 6409        OSL    50  DPPC   O31  6409  -0.490000  15.999400
 6410         CL    50  DPPC   C31  6410   0.900000  12.011000
 6411        OBL    50  DPPC   O32  6411  -0.630000  15.999400
 6412       CTL2    50  DPPC   C32  6412  -0.220000  12.011000
 6413       HAL2    50  DPPC   H2X  6413   0.090000   1.008000
 6414       HAL2    50  DPPC   H2Y  6414   0.090000   1.008000
 6415       CTL2    50  DPPC   C23  6415  -0.180000  12.011000
 6416       HAL2    50  DPPC   H3R  6416   0.090000   1.008000
 6417       HAL2    50  DPPC   H3S  6417   0.090000   1.008000
 6418       CTL2    50  DPPC   C24  6418  -0.180000  12.011000
 6419       HAL2    50  DPPC   H4R  6419   0.090000   1.008000
 6420       HAL2    50  DPPC   H4S  6420   0.090000   1.008000
 6421       CTL2    50  DPPC   C25  6421  -0.180000  12.011000
 6422       HAL2    50  DPPC   H5R  6422   0.090000   1.008000
 6423       HAL2    50  DPPC   H5S  6423   0.090000   1.008000
 6424       CTL2    50  DPPC   C26  6424  -0.180000  12.011000
 6425       HAL2    50  DPPC   H6R  6425   0.090000   1.008000
 6426       HAL2    50  DPPC   H6S  6426   0.090000   1.008000
 6427       CTL2    50  DPPC   C27  6427  -0.180000  12.011000
 6428       HAL2    50  DPPC   H7R  6428   0.090000   1.008000
 6429       HAL2    50  DPPC   H7S  6429   0.090000   1.008000
 6430       CTL2    50  DPPC   C28  6430  -0.180000  12.011000
 6431       HAL2    50  DPPC   H8R  6431   0.090000   1.008000
 6432       HAL2    50  DPPC   H8S  6432   0.090000   1.008000
 6433       CTL2    50  DPPC   C29  6433  -0.180000  12.011000
 6434       HAL2    50  DPPC   H9R  6434   0.090000   1.008000
 6435       HAL2    50  DPPC   H9S  6435   0.090000   1.008000
 6436       CTL2    50  DPPC  C210  6436  -0.180000  12.011000
 6437       HAL2    50  DPPC  H10R  6437   0.090000   1.008000
 6438       HAL2    50  DPPC  H10S  6438   0.090000   1.008000
 6439       CTL2    50  DPPC  C211  6439  -0.180000  12.011000
 6440       HAL2    50  DPPC  H11R  6440   0.090000   1.008000
 6441       HAL2    50  DPPC  H11S  6441   0.090000   1.008000
 6442       CTL2    50  DPPC  C212  6442  -0.180000  12.011000
 6443       HAL2    50  DPPC  H12R  6443   0.090000   1.008000
 6444       HAL2    50  DPPC  H12S  6444   0.090000   1.008000
 6445       CTL2    50  DPPC  C213  6445  -0.180000  12.011000
 6446       HAL2    50  DPPC  H13R  6446   0.090000   1.008000
 6447       HAL2    50  DPPC  H13S  6447   0.090000   1.008000
 6448       CTL2    50  DPPC  C214  6448  -0.180000  12.011000
 6449       HAL2    50  DPPC  H14R  6449   0.090000   1.008000
 6450       HAL2    50  DPPC  H14S  6450   0.090000   1.008000
 6451       CTL2    50  DPPC  C215  6451  -0.180000  12.011000
 6452       HAL2    50  DPPC  H15R  6452   0.090000   1.008000
 6453       HAL2    50  DPPC  H15S  6453   0.090000   1.008000
 6454       CTL3    50  DPPC  C216  6454  -0.270000  12.011000
 6455       HAL3    50  DPPC  H16R  6455   0.090000   1.008000
 6456       HAL3    50  DPPC  H16S  6456   0.090000   1.008000
 6457       HAL3    50  DPPC  H16T  6457   0.090000   1.008000
 6458       CTL2    50  DPPC   C33  6458  -0.180000  12.011000
 6459       HAL2    50  DPPC   H3X  6459   0.090000   1.008000
 6460       HAL2    50  DPPC   H3Y  6460   0.090000   1.008000
 6461       CTL2    50  DPPC   C34  6461  -0.180000  12.011000
 6462       HAL2    50  DPPC   H4X  6462   0.090000   1.008000
 6463       HAL2    50  DPPC   H4Y  6463   0.090000   1.008000
 6464       CTL2    50  DPPC   C35  6464  -0.180000  12.011000
 6465       HAL2    50  DPPC   H5X  6465   0.090000   1.008000
 6466       HAL2    50  DPPC   H5Y  6466   0.090000   1.008000
 6467       CTL2    50  DPPC   C36  6467  -0.180000  12.011000
 6468       HAL2    50  DPPC   H6X  6468   0.090000   1.008000
 6469       HAL2    50  DPPC   H6Y  6469   0.090000   1.008000
 6470       CTL2    50  DPPC   C37  6470  -0.180000  12.011000
 6471       HAL2    50  DPPC   H7X  6471   0.090000   1.008000
 6472       HAL2    50  DPPC   H7Y  6472   0.090000   1.008000
 6473       CTL2    50  DPPC   C38  6473  -0.180000  12.011000
 6474       HAL2    50  DPPC   H8X  6474   0.090000   1.008000
 6475       HAL2    50  DPPC   H8Y  6475   0.090000   1.008000
 6476       CTL2    50  DPPC   C39  6476  -0.180000  12.011000
 6477       HAL2    50  DPPC   H9X  6477   0.090000   1.008000
 6478       HAL2    50  DPPC   H9Y  6478   0.090000   1.008000
 6479       CTL2    50  DPPC  C310  6479  -0.180000  12.011000
 6480       HAL2    50  DPPC  H10X  6480   0.090000   1.008000
 6481       HAL2    50  DPPC  H10Y  6481   0.090000   1.008000
 6482       CTL2    50  DPPC  C311  6482  -0.180000  12.011000
 6483       HAL2    50  DPPC  H11X  6483   0.090000   1.008000
 6484       HAL2    50  DPPC  H11Y  6484   0.090000   1.008000
 6485       CTL2    50  DPPC  C312  6485  -0.180000  12.011000
 6486       HAL2    50  DPPC  H12X  6486   0.090000   1.008000
 6487       HAL2    50  DPPC  H12Y  6487   0.090000   1.008000
 6488       CTL2    50  DPPC  C313  6488  -0.180000  12.011000
 6489       HAL2    50  DPPC  H13X  6489   0.090000   1.008000
 6490       HAL2    50  DPPC  H13Y  6490   0.090000   1.008000
 6491       CTL2    50  DPPC  C314  6491  -0.180000  12.011000
 6492       HAL2    50  DPPC  H14X  6492   0.090000   1.008000
 6493       HAL2    50  DPPC  H14Y  6493   0.090000   1.008000
 6494       CTL2    50  DPPC  C315  6494  -0.180000  12.011000
 6495       HAL2    50  DPPC  H15X  6495   0.090000   1.008000
 6496       HAL2    50  DPPC  H15Y  6496   0.090000   1.008000
 6497       CTL3    50  DPPC  C316  6497  -0.270000  12.011000
 6498       HAL3    50  DPPC  H16X  6498   0.090000   1.008000
 6499       HAL3    50  DPPC  H16Y  6499   0.090000   1.008000
 6500       HAL3    50  DPPC  H16Z  6500   0.090000   1.008000
 6501        NTL    51  DPPC     N  6501  -0.600000  14.007000
 6502       CTL5    51  DPPC   C13  6502  -0.350000  12.011000
 6503         HL    51  DPPC  H13A  6503   0.250000   1.008000
 6504         HL    51  DPPC  H13B  6504   0.250000   1.008000
 6505         HL    51  DPPC  H13C  6505   0.250000   1.008000
 6506       CTL5    51  DPPC   C14  6506  -0.350000  12.011000
 6507         HL    51  DPPC  H14A  6507   0.250000   1.008000
 6508         HL    51  DPPC  H14B  6508   0.250000   1.008000
 6509         HL    51  DPPC  H14C  6509   0.250000   1.008000
 6510       CTL5    51  DPPC   C15  6510  -0.350000  12.011000
 6511         HL    51  DPPC  H15A  6511   0.250000   1.008000
 6512         HL    51  DPPC  H15B  6512   0.250000   1.008000
 6513         HL    51  DPPC  H15C  6513   0.250000   1.008000
 6514       CTL2    51  DPPC   C12  6514  -0.100000  12.011000
 6515         HL    51  DPPC  H12A  6515   0.250000   1.008000
 6516         HL    51  DPPC  H12B  6516   0.250000   1.008000
 6517       CTL2    51  DPPC   C11  6517  -0.080000  12.011000
 6518       HAL2    51  DPPC  H11A  6518   0.090000   1.008000
 6519       HAL2    51  DPPC  H11B  6519   0.090000   1.008000
 6520         PL    51  DPPC     P  6520   1.500000  30.974001
 6521        O2L    51  DPPC   O13  6521  -0.780000  15.999400
 6522        O2L    51  DPPC   O14  6522  -0.780000  15.999400
 6523       OSLP    51  DPPC   O11  6523  -0.570000  15.999400
 6524       OSLP    51  DPPC   O12  6524  -0.570000  15.999400
 6525       CTL2    51  DPPC    C1  6525  -0.080000  12.011000
 6526       HAL2    51  DPPC    HA  6526   0.090000   1.008000
 6527       HAL2    51  DPPC    HB  6527   0.090000   1.008000
 6528       CTL1    51  DPPC    C2  6528   0.170000  12.011000
 6529       HAL1    51  DPPC    HS  6529   0.090000   1.008000
 6530        OSL    51  DPPC   O21  6530  -0.490000  15.999400
 6531         CL    51  DPPC   C21  6531   0.900000  12.011000
 6532        OBL    51  DPPC   O22  6532  -0.630000  15.999400
 6533       CTL2    51  DPPC   C22  6533  -0.220000  12.011000
 6534       HAL2    51  DPPC   H2R  6534   0.090000   1.008000
 6535       HAL2    51  DPPC   H2S  6535   0.090000   1.008000
 6536       CTL2    51  DPPC    C3  6536   0.080000  12.011000
 6537       HAL2    51  DPPC    HX  6537   0.090000   1.008000
 6538       HAL2    51  DPPC    HY  6538   0.090000   1.008000
 6539        OSL    51  DPPC   O31  6539  -0.490000  15.999400
 6540         CL    51  DPPC   C31  6540   0.900000  12.011000
 6541        OBL    51  DPPC   O32  6541  -0.630000  15.999400
 6542       CTL2    51  DPPC   C32  6542  -0.220000  12.011000
 6543       HAL2    51  DPPC   H2X  6543   0.090000   1.008000
 6544       HAL2    51  DPPC   H2Y  6544   0.090000   1.008000
 6545       CTL2    51  DPPC   C23  6545  -0.180000  12.011000
 6546       HAL2    51  DPPC   H3R  6546   0.090000   1.008000
 6547       HAL2    51  DPPC   H3S  6547   0.090000   1.008000
 6548       CTL2    51  DPPC   C24  6548  -0.180000  12.011000
 6549       HAL2    51  DPPC   H4R  6549   0.090000   1.008000
 6550       HAL2    51  DPPC   H4S  6550   0.090000   1.008000
 6551       CTL2    51  DPPC   C25  6551  -0.180000  12.011000
 6552       HAL2    51  DPPC   H5R  6552   0.090000   1.008000
 6553       HAL2    51  DPPC   H5S  6553   0.090000   1.008000
 6554       CTL2    51  DPPC   C26  6554  -0.180000  12.011000
 6555       HAL2    51  DPPC   H6R  6555   0.090000   1.008000
 6556       HAL2    51  DPPC   H6S  6556   0.090000   1.008000
 6557       CTL2    51  DPPC   C27  6557  -0.180000  12.011000
 6558       HAL2    51  DPPC   H7R  6558   0.090000   1.008000
 6559       HAL2    51  DPPC   H7S  6559   0.090000   1.008000
 6560       CTL2    51  DPPC   C28  6560  -0.180000  12.011000
 6561       HAL2    51  DPPC   H8R  6561   0.090000   1.008000
 6562       HAL2    51  DPPC   H8S  6562   0.090000   1.008000
 6563       CTL2    51  DPPC   C29  6563  -0.180000  12.011000
 6564       HAL2    51  DPPC   H9R  6564   0.090000   1.008000
 6565       HAL2    51  DPPC   H9S  6565   0.090000   1.008000
 6566       CTL2    51  DPPC  C210  6566  -0.180000  12.011000
 6567       HAL2    51  DPPC  H10R  6567   0.090000   1.008000
 6568       HAL2    51  DPPC  H10S  6568   0.090000   1.008000
 6569       CTL2    51  DPPC  C211  6569  -0.180000  12.011000
 6570       HAL2    51  DPPC  H11R  6570   0.090000   1.008000
 6571       HAL2    51  DPPC  H11S  6571   0.090000   1.008000
 6572       CTL2    51  DPPC  C212  6572  -0.180000  12.011000
 6573       HAL2    51  DPPC  H12R  6573   0.090000   1.008000
 6574       HAL2    51  DPPC  H12S  6574   0.090000   1.008000
 6575       CTL2    51  DPPC  C213  6575  -0.180000  12.011000
 6576       HAL2    51  DPPC  H13R  6576   0.090000   1.008000
 6577       HAL2    51  DPPC  H13S  6577   0.090000   1.008000
 6578       CTL2    51  DPPC  C214  6578  -0.180000  12.011000
 6579       HAL2    51  DPPC  H14R  6579   0.090000   1.008000
 6580       HAL2    51  DPPC  H14S  6580   0.090000   1.008000
 6581       CTL2    51  DPPC  C215  6581  -0.180000  12.011000
 6582       HAL2    51  DPPC  H15R  6582   0.090000   1.008000
 6583       HAL2    51  DPPC  H15S  6583   0.090000   1.008000
 6584       CTL3    51  DPPC  C216  6584  -0.270000  12.011000
 6585       HAL3    51  DPPC  H16R  6585   0.090000   1.008000
 6586       HAL3    51  DPPC  H16S  6586   0.090000   1.008000
 6587       HAL3    51  DPPC  H16T  6587   0.090000   1.008000
 6588       CTL2    51  DPPC   C33  6588  -0.180000  12.011000
 6589       HAL2    51  DPPC   H3X  6589   0.090000   1.008000
 6590       HAL2    51  DPPC   H3Y  6590   0.090000   1.008000
 6591       CTL2    51  DPPC   C34  6591  -0.180000  12.011000
 6592       HAL2    51  DPPC   H4X  6592   0.090000   1.008000
 6593       HAL2    51  DPPC   H4Y  6593   0.090000   1.008000
 6594       CTL2    51  DPPC   C35  6594  -0.180000  12.011000
 6595       HAL2    51  DPPC   H5X  6595   0.090000   1.008000
 6596       HAL2    51  DPPC   H5Y  6596   0.090000   1.008000
 6597       CTL2    51  DPPC   C36  6597  -0.180000  12.011000
 6598       HAL2    51  DPPC   H6X  6598   0.090000   1.008000
 6599       HAL2    51  DPPC   H6Y  6599   0.090000   1.008000
 6600       CTL2    51  DPPC   C37  6600  -0.180000  12.011000
 6601       HAL2    51  DPPC   H7X  6601   0.090000   1.008000
 6602       HAL2    51  DPPC   H7Y  6602   0.090000   1.008000
 6603       CTL2    51  DPPC   C38  6603  -0.180000  12.011000
 6604       HAL2    51  DPPC   H8X  6604   0.090000   1.008000
 6605       HAL2    51  DPPC   H8Y  6605   0.090000   1.008000
 6606       CTL2    51  DPPC   C39  6606  -0.180000  12.011000
 6607       HAL2    51  DPPC   H9X  6607   0.090000   1.008000
 6608       HAL2    51  DPPC   H9Y  6608   0.090000   1.008000
 6609       CTL2    51  DPPC  C310  6609  -0.180000  12.011000
 6610       HAL2    51  DPPC  H10X  6610   0.090000   1.008000
 6611       HAL2    51  DPPC  H10Y  6611   0.090000   1.008000
 6612       CTL2    51  DPPC  C311  6612  -0.180000  12.011000
 6613       HAL2    51  DPPC  H11X  6613   0.090000   1.008000
 6614       HAL2    51  DPPC  H11Y  6614   0.090000   1.008000
 6615       CTL2    51  DPPC  C312  6615  -0.180000  12.011000
 6616       HAL2    51  DPPC  H12X  6616   0.090000   1.008000
 6617       HAL2    51  DPPC  H12Y  6617   0.090000   1.008000
 6618       CTL2    51  DPPC  C313  6618  -0.180000  12.011000
 6619       HAL2    51  DPPC  H13X  6619   0.090000   1.008000
 6620       HAL2    51  DPPC  H13Y  6620   0.090000   1.008000
 6621       CTL2    51  DPPC  C314  6621  -0.180000  12.011000
 6622       HAL2    51  DPPC  H14X  6622   0.090000   1.008000
 6623       HAL2    51  DPPC  H14Y  6623   0.090000   1.008000
 6624       CTL2    51  DPPC  C315  6624  -0.180000  12.011000
 6625       HAL2    51  DPPC  H15X  6625   0.090000   1.008000
 6626       HAL2    51  DPPC  H15Y  6626   0.090000   1.008000
 6627       CTL3    51  DPPC  C316  6627  -0.270000  12.011000
 6628       HAL3    51  DPPC  H16X  6628   0.090000   1.008000
 6629       HAL3    51  DPPC  H16Y  6629   0.090000   1.008000
 6630       HAL3    51  DPPC  H16Z  6630   0.090000   1.008000
 6631        NTL    52  DPPC     N  6631  -0.600000  14.007000
 6632       CTL5    52  DPPC   C13  6632  -0.350000  12.011000
 6633         HL    52  DPPC  H13A  6633   0.250000   1.008000
 6634         HL    52  DPPC  H13B  6634   0.250000   1.008000
 6635         HL    52  DPPC  H13C  6635   0.250000   1.008000
 6636       CTL5    52  DPPC   C14  6636  -0.350000  12.011000
 6637         HL    52  DPPC  H14A  6637   0.250000   1.008000
 6638         HL    52  DPPC  H14B  6638   0.250000   1.008000
 6639         HL    52  DPPC  H14C  6639   0.250000   1.008000
 6640       CTL5    52  DPPC   C15  6640  -0.350000  12.011000
 6641         HL    52  DPPC  H15A  6641   0.250000   1.008000
 6642         HL    52  DPPC  H15B  6642   0.250000   1.008000
 6643         HL    52  DPPC  H15C  6643   0.250000   1.008000
 6644       CTL2    52  DPPC   C12  6644  -0.100000  12.011000
 6645         HL    52  DPPC  H12A  6645   0.250000   1.008000
 6646         HL    52  DPPC  H12B  6646   0.250000   1.008000
 6647       CTL2    52  DPPC   C11  6647  -0.080000  12.011000
 6648       HAL2    52  DPPC  H11A  6648   0.090000   1.008000
 6649       HAL2    52  DPPC  H11B  6649   0.090000   1.008000
 6650         PL    52  DPPC     P  6650   1.500000  30.974001
 6651        O2L    52  DPPC   O13  6651  -0.780000  15.999400
 6652        O2L    52  DPPC   O14  6652  -0.780000  15.999400
 6653       OSLP    52  DPPC   O11  6653  -0.570000  15.999400
 6654       OSLP    52  DPPC   O12  6654  -0.570000  15.999400
 6655       CTL2    52  DPPC    C1  6655  -0.080000  12.011000
 6656       HAL2    52  DPPC    HA  6656   0.090000   1.008000
 6657       HAL2    52  DPPC    HB  6657   0.090000   1.008000
 6658       CTL1    52  DPPC    C2  6658   0.170000  12.011000
 6659       HAL1    52  DPPC    HS  6659   0.090000   1.008000
 6660        OSL    52  DPPC   O21  6660  -0.490000  15.999400
 6661         CL    52  DPPC   C21  6661   0.900000  12.011000
 6662        OBL    52  DPPC   O22  6662  -0.630000  15.999400
 6663       CTL2    52  DPPC   C22  6663  -0.220000  12.011000
 6664       HAL2    52  DPPC   H2R  6664   0.090000   1.008000
 6665       HAL2    52  DPPC   H2S  6665   0.090000   1.008000
 6666       CTL2    52  DPPC    C3  6666   0.080000  12.011000
 6667       HAL2    52  DPPC    HX  6667   0.090000   1.008000
 6668       HAL2    52  DPPC    HY  6668   0.090000   1.008000
 6669        OSL    52  DPPC   O31  6669  -0.490000  15.999400
 6670         CL    52  DPPC   C31  6670   0.900000  12.011000
 6671        OBL    52  DPPC   O32  6671  -0.630000  15.999400
 6672       CTL2    52  DPPC   C32  6672  -0.220000  12.011000
 6673       HAL2    52  DPPC   H2X  6673   0.090000   1.008000
 6674       HAL2    52  DPPC   H2Y  6674   0.090000   1.008000
 6675       CTL2    52  DPPC   C23  6675  -0.180000  12.011000
 6676       HAL2    52  DPPC   H3R  6676   0.090000   1.008000
 6677       HAL2    52  DPPC   H3S  6677   0.090000   1.008000
 6678       CTL2    52  DPPC   C24  6678  -0.180000  12.011000
 6679       HAL2    52  DPPC   H4R  6679   0.090000   1.008000
 6680       HAL2    52  DPPC   H4S  6680   0.090000   1.008000
 6681       CTL2    52  DPPC   C25  6681  -0.180000  12.011000
 6682       HAL2    52  DPPC   H5R  6682   0.090000   1.008000
 6683       HAL2    52  DPPC   H5S  6683   0.090000   1.008000
 6684       CTL2    52  DPPC   C26  6684  -0.180000  12.011000
 6685       HAL2    52  DPPC   H6R  6685   0.090000   1.008000
 6686       HAL2    52  DPPC   H6S  6686   0.090000   1.008000
 6687       CTL2    52  DPPC   C27  6687  -0.180000  12.011000
 6688       HAL2    52  DPPC   H7R  6688   0.090000   1.008000
 6689       HAL2    52  DPPC   H7S  6689   0.090000   1.008000
 6690       CTL2    52  DPPC   C28  6690  -0.180000  12.011000
 6691       HAL2    52  DPPC   H8R  6691   0.090000   1.008000
 6692       HAL2    52  DPPC   H8S  6692   0.090000   1.008000
 6693       CTL2    52  DPPC   C29  6693  -0.180000  12.011000
 6694       HAL2    52  DPPC   H9R  6694   0.090000   1.008000
 6695       HAL2    52  DPPC   H9S  6695   0.090000   1.008000
 6696       CTL2    52  DPPC  C210  6696  -0.180000  12.011000
 6697       HAL2    52  DPPC  H10R  6697   0.090000   1.008000
 6698       HAL2    52  DPPC  H10S  6698   0.090000   1.008000
 6699       CTL2    52  DPPC  C211  6699  -0.180000  12.011000
 6700       HAL2    52  DPPC  H11R  6700   0.090000   1.008000
 6701       HAL2    52  DPPC  H11S  6701   0.090000   1.008000
 6702       CTL2    52  DPPC  C212  6702  -0.180000  12.011000
 6703       HAL2    52  DPPC  H12R  6703   0.090000   1.008000
 6704       HAL2    52  DPPC  H12S  6704   0.090000   1.008000
 6705       CTL2    52  DPPC  C213  6705  -0.180000  12.011000
 6706       HAL2    52  DPPC  H13R  6706   0.090000   1.008000
 6707       HAL2    52  DPPC  H13S  6707   0.090000   1.008000
 6708       CTL2    52  DPPC  C214  6708  -0.180000  12.011000
 6709       HAL2    52  DPPC  H14R  6709   0.090000   1.008000
 6710       HAL2    52  DPPC  H14S  6710   0.090000   1.008000
 6711       CTL2    52  DPPC  C215  6711  -0.180000  12.011000
 6712       HAL2    52  DPPC  H15R  6712   0.090000   1.008000
 6713       HAL2    52  DPPC  H15S  6713   0.090000   1.008000
 6714       CTL3    52  DPPC  C216  6714  -0.270000  12.011000
 6715       HAL3    52  DPPC  H16R  6715   0.090000   1.008000
 6716       HAL3    52  DPPC  H16S  6716   0.090000   1.008000
 6717       HAL3    52  DPPC  H16T  6717   0.090000   1.008000
 6718       CTL2    52  DPPC   C33  6718  -0.180000  12.011000
 6719       HAL2    52  DPPC   H3X  6719   0.090000   1.008000
 6720       HAL2    52  DPPC   H3Y  6720   0.090000   1.008000
 6721       CTL2    52  DPPC   C34  6721  -0.180000  12.011000
 6722       HAL2    52  DPPC   H4X  6722   0.090000   1.008000
 6723       HAL2    52  DPPC   H4Y  6723   0.090000   1.008000
 6724       CTL2    52  DPPC   C35  6724  -0.180000  12.011000
 6725       HAL2    52  DPPC   H5X  6725   0.090000   1.008000
 6726       HAL2    52  DPPC   H5Y  6726   0.090000   1.008000
 6727       CTL2    52  DPPC   C36  6727  -0.180000  12.011000
 6728       HAL2    52  DPPC   H6X  6728   0.090000   1.008000
 6729       HAL2    52  DPPC   H6Y  6729   0.090000   1.008000
 6730       CTL2    52  DPPC   C37  6730  -0.180000  12.011000
 6731       HAL2    52  DPPC   H7X  6731   0.090000   1.008000
 6732       HAL2    52  DPPC   H7Y  6732   0.090000   1.008000
 6733       CTL2    52  DPPC   C38  6733  -0.180000  12.011000
 6734       HAL2    52  DPPC   H8X  6734   0.090000   1.008000
 6735       HAL2    52  DPPC   H8Y  6735   0.090000   1.008000
 6736       CTL2    52  DPPC   C39  6736  -0.180000  12.011000
 6737       HAL2    52  DPPC   H9X  6737   0.090000   1.008000
 6738       HAL2    52  DPPC   H9Y  6738   0.090000   1.008000
 6739       CTL2    52  DPPC  C310  6739  -0.180000  12.011000
 6740       HAL2    52  DPPC  H10X  6740   0.090000   1.008000
 6741       HAL2    52  DPPC  H10Y  6741   0.090000   1.008000
 6742       CTL2    52  DPPC  C311  6742  -0.180000  12.011000
 6743       HAL2    52  DPPC  H11X  6743   0.090000   1.008000
 6744       HAL2    52  DPPC  H11Y  6744   0.090000   1.008000
 6745       CTL2    52  DPPC  C312  6745  -0.180000  12.011000
 6746       HAL2    52  DPPC  H12X  6746   0.090000   1.008000
 6747       HAL2    52  DPPC  H12Y  6747   0.090000   1.008000
 6748       CTL2    52  DPPC  C313  6748  -0.180000  12.011000
 6749       HAL2    52  DPPC  H13X  6749   0.090000   1.008000
 6750       HAL2    52  DPPC  H13Y  6750   0.090000   1.008000
 6751       CTL2    52  DPPC  C314  6751  -0.180000  12.011000
 6752       HAL2    52  DPPC  H14X  6752   0.090000   1.008000
 6753       HAL2    52  DPPC  H14Y  6753   0.090000   1.008000
 6754       CTL2    52  DPPC  C315  6754  -0.180000  12.011000
 6755       HAL2    52  DPPC  H15X  6755   0.090000   1.008000
 6756       HAL2    52  DPPC  H15Y  6756   0.090000   1.008000
 6757       CTL3    52  DPPC  C316  6757  -0.270000  12.011000
 6758       HAL3    52  DPPC  H16X  6758   0.090000   1.008000
 6759       HAL3    52  DPPC  H16Y  6759   0.090000   1.008000
 6760       HAL3    52  DPPC  H16Z  6760   0.090000   1.008000
 6761        NTL    53  DPPC     N  6761  -0.600000  14.007000
 6762       CTL5    53  DPPC   C13  6762  -0.350000  12.011000
 6763         HL    53  DPPC  H13A  6763   0.250000   1.008000
 6764         HL    53  DPPC  H13B  6764   0.250000   1.008000
 6765         HL    53  DPPC  H13C  6765   0.250000   1.008000
 6766       CTL5    53  DPPC   C14  6766  -0.350000  12.011000
 6767         HL    53  DPPC  H14A  6767   0.250000   1.008000
 6768         HL    53  DPPC  H14B  6768   0.250000   1.008000
 6769         HL    53  DPPC  H14C  6769   0.250000   1.008000
 6770       CTL5    53  DPPC   C15  6770  -0.350000  12.011000
 6771         HL    53  DPPC  H15A  6771   0.250000   1.008000
 6772         HL    53  DPPC  H15B  6772   0.250000   1.008000
 6773         HL    53  DPPC  H15C  6773   0.250000   1.008000
 6774       CTL2    53  DPPC   C12  6774  -0.100000  12.011000
 6775         HL    53  DPPC  H12A  6775   0.250000   1.008000
 6776         HL    53  DPPC  H12B  6776   0.250000   1.008000
 6777       CTL2    53  DPPC   C11  6777  -0.080000  12.011000
 6778       HAL2    53  DPPC  H11A  6778   0.090000   1.008000
 6779       HAL2    53  DPPC  H11B  6779   0.090000   1.008000
 6780         PL    53  DPPC     P  6780   1.500000  30.974001
 6781        O2L    53  DPPC   O13  6781  -0.780000  15.999400
 6782        O2L    53  DPPC   O14  6782  -0.780000  15.999400
 6783       OSLP    53  DPPC   O11  6783  -0.570000  15.999400
 6784       OSLP    53  DPPC   O12  6784  -0.570000  15.999400
 6785       CTL2    53  DPPC    C1  6785  -0.080000  12.011000
 6786       HAL2    53  DPPC    HA  6786   0.090000   1.008000
 6787       HAL2    53  DPPC    HB  6787   0.090000   1.008000
 6788       CTL1    53  DPPC    C2  6788   0.170000  12.011000
 6789       HAL1    53  DPPC    HS  6789   0.090000   1.008000
 6790        OSL    53  DPPC   O21  6790  -0.490000  15.999400
 6791         CL    53  DPPC   C21  6791   0.900000  12.011000
 6792        OBL    53  DPPC   O22  6792  -0.630000  15.999400
 6793       CTL2    53  DPPC   C22  6793  -0.220000  12.011000
 6794       HAL2    53  DPPC   H2R  6794   0.090000   1.008000
 6795       HAL2    53  DPPC   H2S  6795   0.090000   1.008000
 6796       CTL2    53  DPPC    C3  6796   0.080000  12.011000
 6797       HAL2    53  DPPC    HX  6797   0.090000   1.008000
 6798       HAL2    53  DPPC    HY  6798   0.090000   1.008000
 6799        OSL    53  DPPC   O31  6799  -0.490000  15.999400
 6800         CL    53  DPPC   C31  6800   0.900000  12.011000
 6801        OBL    53  DPPC   O32  6801  -0.630000  15.999400
 6802       CTL2    53  DPPC   C32  6802  -0.220000  12.011000
 6803       HAL2    53  DPPC   H2X  6803   0.090000   1.008000
 6804       HAL2    53  DPPC   H2Y  6804   0.090000   1.008000
 6805       CTL2    53  DPPC   C23  6805  -0.180000  12.011000
 6806       HAL2    53  DPPC   H3R  6806   0.090000   1.008000
 6807       HAL2    53  DPPC   H3S  6807   0.090000   1.008000
 6808       CTL2    53  DPPC   C24  6808  -0.180000  12.011000
 6809       HAL2    53  DPPC   H4R  6809   0.090000   1.008000
 6810       HAL2    53  DPPC   H4S  6810   0.090000   1.008000
 6811       CTL2    53  DPPC   C25  6811  -0.180000  12.011000
 6812       HAL2    53  DPPC   H5R  6812   0.090000   1.008000
 6813       HAL2    53  DPPC   H5S  6813   0.090000   1.008000
 6814       CTL2    53  DPPC   C26  6814  -0.180000  12.011000
 6815       HAL2    53  DPPC   H6R  6815   0.090000   1.008000
 6816       HAL2    53  DPPC   H6S  6816   0.090000   1.008000
 6817       CTL2    53  DPPC   C27  6817  -0.180000  12.011000
 6818       HAL2    53  DPPC   H7R  6818   0.090000   1.008000
 6819       HAL2    53  DPPC   H7S  6819   0.090000   1.008000
 6820       CTL2    53  DPPC   C28  6820  -0.180000  12.011000
 6821       HAL2    53  DPPC   H8R  6821   0.090000   1.008000
 6822       HAL2    53  DPPC   H8S  6822   0.090000   1.008000
 6823       CTL2    53  DPPC   C29  6823  -0.180000  12.011000
 6824       HAL2    53  DPPC   H9R  6824   0.090000   1.008000
 6825       HAL2    53  DPPC   H9S  6825   0.090000   1.008000
 6826       CTL2    53  DPPC  C210  6826  -0.180000  12.011000
 6827       HAL2    53  DPPC  H10R  6827   0.090000   1.008000
 6828       HAL2    53  DPPC  H10S  6828   0.090000   1.008000
 6829       CTL2    53  DPPC  C211  6829  -0.180000  12.011000
 6830       HAL2    53  DPPC  H11R  6830   0.090000   1.008000
 6831       HAL2    53  DPPC  H11S  6831   0.090000   1.008000
 6832       CTL2    53  DPPC  C212  6832  -0.180000  12.011000
 6833       HAL2    53  DPPC  H12R  6833   0.090000   1.008000
 6834       HAL2    53  DPPC  H12S  6834   0.090000   1.008000
 6835       CTL2    53  DPPC  C213  6835  -0.180000  12.011000
 6836       HAL2    53  DPPC  H13R  6836   0.090000   1.008000
 6837       HAL2    53  DPPC  H13S  6837   0.090000   1.008000
 6838       CTL2    53  DPPC  C214  6838  -0.180000  12.011000
 6839       HAL2    53  DPPC  H14R  6839   0.090000   1.008000
 6840       HAL2    53  DPPC  H14S  6840   0.090000   1.008000
 6841       CTL2    53  DPPC  C215  6841  -0.180000  12.011000
 6842       HAL2    53  DPPC  H15R  6842   0.090000   1.008000
 6843       HAL2    53  DPPC  H15S  6843   0.090000   1.008000
 6844       CTL3    53  DPPC  C216  6844  -0.270000  12.011000
 6845       HAL3    53  DPPC  H16R  6845   0.090000   1.008000
 6846       HAL3    53  DPPC  H16S  6846   0.090000   1.008000
 6847       HAL3    53  DPPC  H16T  6847   0.090000   1.008000
 6848       CTL2    53  DPPC   C33  6848  -0.180000  12.011000
 6849       HAL2    53  DPPC   H3X  6849   0.090000   1.008000
 6850       HAL2    53  DPPC   H3Y  6850   0.090000   1.008000
 6851       CTL2    53  DPPC   C34  6851  -0.180000  12.011000
 6852       HAL2    53  DPPC   H4X  6852   0.090000   1.008000
 6853       HAL2    53  DPPC   H4Y  6853   0.090000   1.008000
 6854       CTL2    53  DPPC   C35  6854  -0.180000  12.011000
 6855       HAL2    53  DPPC   H5X  6855   0.090000   1.008000
 6856       HAL2    53  DPPC   H5Y  6856   0.090000   1.008000
 6857       CTL2    53  DPPC   C36  6857  -0.180000  12.011000
 6858       HAL2    53  DPPC   H6X  6858   0.090000   1.008000
 6859       HAL2    53  DPPC   H6Y  6859   0.090000   1.008000
 6860       CTL2    53  DPPC   C37  6860  -0.180000  12.011000
 6861       HAL2    53  DPPC   H7X  6861   0.090000   1.008000
 6862       HAL2    53  DPPC   H7Y  6862   0.090000   1.008000
 6863       CTL2    53  DPPC   C38  6863  -0.180000  12.011000
 6864       HAL2    53  DPPC   H8X  6864   0.090000   1.008000
 6865       HAL2    53  DPPC   H8Y  6865   0.090000   1.008000
 6866       CTL2    53  DPPC   C39  6866  -0.180000  12.011000
 6867       HAL2    53  DPPC   H9X  6867   0.090000   1.008000
 6868       HAL2    53  DPPC   H9Y  6868   0.090000   1.008000
 6869       CTL2    53  DPPC  C310  6869  -0.180000  12.011000
 6870       HAL2    53  DPPC  H10X  6870   0.090000   1.008000
 6871       HAL2    53  DPPC  H10Y  6871   0.090000   1.008000
 6872       CTL2    53  DPPC  C311  6872  -0.180000  12.011000
 6873       HAL2    53  DPPC  H11X  6873   0.090000   1.008000
 6874       HAL2    53  DPPC  H11Y  6874   0.090000   1.008000
 6875       CTL2    53  DPPC  C312  6875  -0.180000  12.011000
 6876       HAL2    53  DPPC  H12X  6876   0.090000   1.008000
 6877       HAL2    53  DPPC  H12Y  6877   0.090000   1.008000
 6878       CTL2    53  DPPC  C313  6878  -0.180000  12.011000
 6879       HAL2    53  DPPC  H13X  6879   0.090000   1.008000
 6880       HAL2    53  DPPC  H13Y  6880   0.090000   1.008000
 6881       CTL2    53  DPPC  C314  6881  -0.180000  12.011000
 6882       HAL2    53  DPPC  H14X  6882   0.090000   1.008000
 6883       HAL2    53  DPPC  H14Y  6883   0.090000   1.008000
 6884       CTL2    53  DPPC  C315  6884  -0.180000  12.011000
 6885       HAL2    53  DPPC  H15X  6885   0.090000   1.008000
 6886       HAL2    53  DPPC  H15Y  6886   0.090000   1.008000
 6887       CTL3    53  DPPC  C316  6887  -0.270000  12.011000
 6888       HAL3    53  DPPC  H16X  6888   0.090000   1.008000
 6889       HAL3    53  DPPC  H16Y  6889   0.090000   1.008000
 6890       HAL3    53  DPPC  H16Z  6890   0.090000   1.008000
 6891        NTL    54  DPPC     N  6891  -0.600000  14.007000
 6892       CTL5    54  DPPC   C13  6892  -0.350000  12.011000
 6893         HL    54  DPPC  H13A  6893   0.250000   1.008000
 6894         HL    54  DPPC  H13B  6894   0.250000   1.008000
 6895         HL    54  DPPC  H13C  6895   0.250000   1.008000
 6896       CTL5    54  DPPC   C14  6896  -0.350000  12.011000
 6897         HL    54  DPPC  H14A  6897   0.250000   1.008000
 6898         HL    54  DPPC  H14B  6898   0.250000   1.008000
 6899         HL    54  DPPC  H14C  6899   0.250000   1.008000
 6900       CTL5    54  DPPC   C15  6900  -0.350000  12.011000
 6901         HL    54  DPPC  H15A  6901   0.250000   1.008000
 6902         HL    54  DPPC  H15B  6902   0.250000   1.008000
 6903         HL    54  DPPC  H15C  6903   0.250000   1.008000
 6904       CTL2    54  DPPC   C12  6904  -0.100000  12.011000
 6905         HL    54  DPPC  H12A  6905   0.250000   1.008000
 6906         HL    54  DPPC  H12B  6906   0.250000   1.008000
 6907       CTL2    54  DPPC   C11  6907  -0.080000  12.011000
 6908       HAL2    54  DPPC  H11A  6908   0.090000   1.008000
 6909       HAL2    54  DPPC  H11B  6909   0.090000   1.008000
 6910         PL    54  DPPC     P  6910   1.500000  30.974001
 6911        O2L    54  DPPC   O13  6911  -0.780000  15.999400
 6912        O2L    54  DPPC   O14  6912  -0.780000  15.999400
 6913       OSLP    54  DPPC   O11  6913  -0.570000  15.999400
 6914       OSLP    54  DPPC   O12  6914  -0.570000  15.999400
 6915       CTL2    54  DPPC    C1  6915  -0.080000  12.011000
 6916       HAL2    54  DPPC    HA  6916   0.090000   1.008000
 6917       HAL2    54  DPPC    HB  6917   0.090000   1.008000
 6918       CTL1    54  DPPC    C2  6918   0.170000  12.011000
 6919       HAL1    54  DPPC    HS  6919   0.090000   1.008000
 6920        OSL    54  DPPC   O21  6920  -0.490000  15.999400
 6921         CL    54  DPPC   C21  6921   0.900000  12.011000
 6922        OBL    54  DPPC   O22  6922  -0.630000  15.999400
 6923       CTL2    54  DPPC   C22  6923  -0.220000  12.011000
 6924       HAL2    54  DPPC   H2R  6924   0.090000   1.008000
 6925       HAL2    54  DPPC   H2S  6925   0.090000   1.008000
 6926       CTL2    54  DPPC    C3  6926   0.080000  12.011000
 6927       HAL2    54  DPPC    HX  6927   0.090000   1.008000
 6928       HAL2    54  DPPC    HY  6928   0.090000   1.008000
 6929        OSL    54  DPPC   O31  6929  -0.490000  15.999400
 6930         CL    54  DPPC   C31  6930   0.900000  12.011000
 6931        OBL    54  DPPC   O32  6931  -0.630000  15.999400
 6932       CTL2    54  DPPC   C32  6932  -0.220000  12.011000
 6933       HAL2    54  DPPC   H2X  6933   0.090000   1.008000
 6934       HAL2    54  DPPC   H2Y  6934   0.090000   1.008000
 6935       CTL2    54  DPPC   C23  6935  -0.180000  12.011000
 6936       HAL2    54  DPPC   H3R  6936   0.090000   1.008000
 6937       HAL2    54  DPPC   H3S  6937   0.090000   1.008000
 6938       CTL2    54  DPPC   C24  6938  -0.180000  12.011000
 6939       HAL2    54  DPPC   H4R  6939   0.090000   1.008000
 6940       HAL2    54  DPPC   H4S  6940   0.090000   1.008000
 6941       CTL2    54  DPPC   C25  6941  -0.180000  12.011000
 6942       HAL2    54  DPPC   H5R  6942   0.090000   1.008000
 6943       HAL2    54  DPPC   H5S  6943   0.090000   1.008000
 6944       CTL2    54  DPPC   C26  6944  -0.180000  12.011000
 6945       HAL2    54  DPPC   H6R  6945   0.090000   1.008000
 6946       HAL2    54  DPPC   H6S  6946   0.090000   1.008000
 6947       CTL2    54  DPPC   C27  6947  -0.180000  12.011000
 6948       HAL2    54  DPPC   H7R  6948   0.090000   1.008000
 6949       HAL2    54  DPPC   H7S  6949   0.090000   1.008000
 6950       CTL2    54  DPPC   C28  6950  -0.180000  12.011000
 6951       HAL2    54  DPPC   H8R  6951   0.090000   1.008000
 6952       HAL2    54  DPPC   H8S  6952   0.090000   1.008000
 6953       CTL2    54  DPPC   C29  6953  -0.180000  12.011000
 6954       HAL2    54  DPPC   H9R  6954   0.090000   1.008000
 6955       HAL2    54  DPPC   H9S  6955   0.090000   1.008000
 6956       CTL2    54  DPPC  C210  6956  -0.180000  12.011000
 6957       HAL2    54  DPPC  H10R  6957   0.090000   1.008000
 6958       HAL2    54  DPPC  H10S  6958   0.090000   1.008000
 6959       CTL2    54  DPPC  C211  6959  -0.180000  12.011000
 6960       HAL2    54  DPPC  H11R  6960   0.090000   1.008000
 6961       HAL2    54  DPPC  H11S  6961   0.090000   1.008000
 6962       CTL2    54  DPPC  C212  6962  -0.180000  12.011000
 6963       HAL2    54  DPPC  H12R  6963   0.090000   1.008000
 6964       HAL2    54  DPPC  H12S  6964   0.090000   1.008000
 6965       CTL2    54  DPPC  C213  6965  -0.180000  12.011000
 6966       HAL2    54  DPPC  H13R  6966   0.090000   1.008000
 6967       HAL2    54  DPPC  H13S  6967   0.090000   1.008000
 6968       CTL2    54  DPPC  C214  6968  -0.180000  12.011000
 6969       HAL2    54  DPPC  H14R  6969   0.090000   1.008000
 6970       HAL2    54  DPPC  H14S  6970   0.090000   1.008000
 6971       CTL2    54  DPPC  C215  6971  -0.180000  12.011000
 6972       HAL2    54  DPPC  H15R  6972   0.090000   1.008000
 6973       HAL2    54  DPPC  H15S  6973   0.090000   1.008000
 6974       CTL3    54  DPPC  C216  6974  -0.270000  12.011000
 6975       HAL3    54  DPPC  H16R  6975   0.090000   1.008000
 6976       HAL3    54  DPPC  H16S  6976   0.090000   1.008000
 6977       HAL3    54  DPPC  H16T  6977   0.090000   1.008000
 6978       CTL2    54  DPPC   C33  6978  -0.180000  12.011000
 6979       HAL2    54  DPPC   H3X  6979   0.090000   1.008000
 6980       HAL2    54  DPPC   H3Y  6980   0.090000   1.008000
 6981       CTL2    54  DPPC   C34  6981  -0.180000  12.011000
 6982       HAL2    54  DPPC   H4X  6982   0.090000   1.008000
 6983       HAL2    54  DPPC   H4Y  6983   0.090000   1.008000
 6984       CTL2    54  DPPC   C35  6984  -0.180000  12.011000
 6985       HAL2    54  DPPC   H5X  6985   0.090000   1.008000
 6986       HAL2    54  DPPC   H5Y  6986   0.090000   1.008000
 6987       CTL2    54  DPPC   C36  6987  -0.180000  12.011000
 6988       HAL2    54  DPPC   H6X  6988   0.090000   1.008000
 6989       HAL2    54  DPPC   H6Y  6989   0.090000   1.008000
 6990       CTL2    54  DPPC   C37  6990  -0.180000  12.011000
 6991       HAL2    54  DPPC   H7X  6991   0.090000   1.008000
 6992       HAL2    54  DPPC   H7Y  6992   0.090000   1.008000
 6993       CTL2    54  DPPC   C38  6993  -0.180000  12.011000
 6994       HAL2    54  DPPC   H8X  6994   0.090000   1.008000
 6995       HAL2    54  DPPC   H8Y  6995   0.090000   1.008000
 6996       CTL2    54  DPPC   C39  6996  -0.180000  12.011000
 6997       HAL2    54  DPPC   H9X  6997   0.090000   1.008000
 6998       HAL2    54  DPPC   H9Y  6998   0.090000   1.008000
 6999       CTL2    54  DPPC  C310  6999  -0.180000  12.011000
 7000       HAL2    54  DPPC  H10X  7000   0.090000   1.008000
 7001       HAL2    54  DPPC  H10Y  7001   0.090000   1.008000
 7002       CTL2    54  DPPC  C311  7002  -0.180000  12.011000
 7003       HAL2    54  DPPC  H11X  7003   0.090000   1.008000
 7004       HAL2    54  DPPC  H11Y  7004   0.090000   1.008000
 7005       CTL2    54  DPPC  C312  7005  -0.180000  12.011000
 7006       HAL2    54  DPPC  H12X  7006   0.090000   1.008000
 7007       HAL2    54  DPPC  H12Y  7007   0.090000   1.008000
 7008       CTL2    54  DPPC  C313  7008  -0.180000  12.011000
 7009       HAL2    54  DPPC  H13X  7009   0.090000   1.008000
 7010       HAL2    54  DPPC  H13Y  7010   0.090000   1.008000
 7011       CTL2    54  DPPC  C314  7011  -0.180000  12.011000
 7012       HAL2    54  DPPC  H14X  7012   0.090000   1.008000
 7013       HAL2    54  DPPC  H14Y  7013   0.090000   1.008000
 7014       CTL2    54  DPPC  C315  7014  -0.180000  12.011000
 7015       HAL2    54  DPPC  H15X  7015   0.090000   1.008000
 7016       HAL2    54  DPPC  H15Y  7016   0.090000   1.008000
 7017       CTL3    54  DPPC  C316  7017  -0.270000  12.011000
 7018       HAL3    54  DPPC  H16X  7018   0.090000   1.008000
 7019       HAL3    54  DPPC  H16Y  7019   0.090000   1.008000
 7020       HAL3    54  DPPC  H16Z  7020   0.090000   1.008000
 7021        NTL    55  DPPC     N  7021  -0.600000  14.007000
 7022       CTL5    55  DPPC   C13  7022  -0.350000  12.011000
 7023         HL    55  DPPC  H13A  7023   0.250000   1.008000
 7024         HL    55  DPPC  H13B  7024   0.250000   1.008000
 7025         HL    55  DPPC  H13C  7025   0.250000   1.008000
 7026       CTL5    55  DPPC   C14  7026  -0.350000  12.011000
 7027         HL    55  DPPC  H14A  7027   0.250000   1.008000
 7028         HL    55  DPPC  H14B  7028   0.250000   1.008000
 7029         HL    55  DPPC  H14C  7029   0.250000   1.008000
 7030       CTL5    55  DPPC   C15  7030  -0.350000  12.011000
 7031         HL    55  DPPC  H15A  7031   0.250000   1.008000
 7032         HL    55  DPPC  H15B  7032   0.250000   1.008000
 7033         HL    55  DPPC  H15C  7033   0.250000   1.008000
 7034       CTL2    55  DPPC   C12  7034  -0.100000  12.011000
 7035         HL    55  DPPC  H12A  7035   0.250000   1.008000
 7036         HL    55  DPPC  H12B  7036   0.250000   1.008000
 7037       CTL2    55  DPPC   C11  7037  -0.080000  12.011000
 7038       HAL2    55  DPPC  H11A  7038   0.090000   1.008000
 7039       HAL2    55  DPPC  H11B  7039   0.090000   1.008000
 7040         PL    55  DPPC     P  7040   1.500000  30.974001
 7041        O2L    55  DPPC   O13  7041  -0.780000  15.999400
 7042        O2L    55  DPPC   O14  7042  -0.780000  15.999400
 7043       OSLP    55  DPPC   O11  7043  -0.570000  15.999400
 7044       OSLP    55  DPPC   O12  7044  -0.570000  15.999400
 7045       CTL2    55  DPPC    C1  7045  -0.080000  12.011000
 7046       HAL2    55  DPPC    HA  7046   0.090000   1.008000
 7047       HAL2    55  DPPC    HB  7047   0.090000   1.008000
 7048       CTL1    55  DPPC    C2  7048   0.170000  12.011000
 7049       HAL1    55  DPPC    HS  7049   0.090000   1.008000
 7050        OSL    55  DPPC   O21  7050  -0.490000  15.999400
 7051         CL    55  DPPC   C21  7051   0.900000  12.011000
 7052        OBL    55  DPPC   O22  7052  -0.630000  15.999400
 7053       CTL2    55  DPPC   C22  7053  -0.220000  12.011000
 7054       HAL2    55  DPPC   H2R  7054   0.090000   1.008000
 7055       HAL2    55  DPPC   H2S  7055   0.090000   1.008000
 7056       CTL2    55  DPPC    C3  7056   0.080000  12.011000
 7057       HAL2    55  DPPC    HX  7057   0.090000   1.008000
 7058       HAL2    55  DPPC    HY  7058   0.090000   1.008000
 7059        OSL    55  DPPC   O31  7059  -0.490000  15.999400
 7060         CL    55  DPPC   C31  7060   0.900000  12.011000
 7061        OBL    55  DPPC   O32  7061  -0.630000  15.999400
 7062       CTL2    55  DPPC   C32  7062  -0.220000  12.011000
 7063       HAL2    55  DPPC   H2X  7063   0.090000   1.008000
 7064       HAL2    55  DPPC   H2Y  7064   0.090000   1.008000
 7065       CTL2    55  DPPC   C23  7065  -0.180000  12.011000
 7066       HAL2    55  DPPC   H3R  7066   0.090000   1.008000
 7067       HAL2    55  DPPC   H3S  7067   0.090000   1.008000
 7068       CTL2    55  DPPC   C24  7068  -0.180000  12.011000
 7069       HAL2    55  DPPC   H4R  7069   0.090000   1.008000
 7070       HAL2    55  DPPC   H4S  7070   0.090000   1.008000
 7071       CTL2    55  DPPC   C25  7071  -0.180000  12.011000
 7072       HAL2    55  DPPC   H5R  7072   0.090000   1.008000
 7073       HAL2    55  DPPC   H5S  7073   0.090000   1.008000
 7074       CTL2    55  DPPC   C26  7074  -0.180000  12.011000
 7075       HAL2    55  DPPC   H6R  7075   0.090000   1.008000
 7076       HAL2    55  DPPC   H6S  7076   0.090000   1.008000
 7077       CTL2    55  DPPC   C27  7077  -0.180000  12.011000
 7078       HAL2    55  DPPC   H7R  7078   0.090000   1.008000
 7079       HAL2    55  DPPC   H7S  7079   0.090000   1.008000
 7080       CTL2    55  DPPC   C28  7080  -0.180000  12.011000
 7081       HAL2    55  DPPC   H8R  7081   0.090000   1.008000
 7082       HAL2    55  DPPC   H8S  7082   0.090000   1.008000
 7083       CTL2    55  DPPC   C29  7083  -0.180000  12.011000
 7084       HAL2    55  DPPC   H9R  7084   0.090000   1.008000
 7085       HAL2    55  DPPC   H9S  7085   0.090000   1.008000
 7086       CTL2    55  DPPC  C210  7086  -0.180000  12.011000
 7087       HAL2    55  DPPC  H10R  7087   0.090000   1.008000
 7088       HAL2    55  DPPC  H10S  7088   0.090000   1.008000
 7089       CTL2    55  DPPC  C211  7089  -0.180000  12.011000
 7090       HAL2    55  DPPC  H11R  7090   0.090000   1.008000
 7091       HAL2    55  DPPC  H11S  7091   0.090000   1.008000
 7092       CTL2    55  DPPC  C212  7092  -0.180000  12.011000
 7093       HAL2    55  DPPC  H12R  7093   0.090000   1.008000
 7094       HAL2    55  DPPC  H12S  7094   0.090000   1.008000
 7095       CTL2    55  DPPC  C213  7095  -0.180000  12.011000
 7096       HAL2    55  DPPC  H13R  7096   0.090000   1.008000
 7097       HAL2    55  DPPC  H13S  7097   0.090000   1.008000
 7098       CTL2    55  DPPC  C214  7098  -0.180000  12.011000
 7099       HAL2    55  DPPC  H14R  7099   0.090000   1.008000
 7100       HAL2    55  DPPC  H14S  7100   0.090000   1.008000
 7101       CTL2    55  DPPC  C215  7101  -0.180000  12.011000
 7102       HAL2    55  DPPC  H15R  7102   0.090000   1.008000
 7103       HAL2    55  DPPC  H15S  7103   0.090000   1.008000
 7104       CTL3    55  DPPC  C216  7104  -0.270000  12.011000
 7105       HAL3    55  DPPC  H16R  7105   0.090000   1.008000
 7106       HAL3    55  DPPC  H16S  7106   0.090000   1.008000
 7107       HAL3    55  DPPC  H16T  7107   0.090000   1.008000
 7108       CTL2    55  DPPC   C33  7108  -0.180000  12.011000
 7109       HAL2    55  DPPC   H3X  7109   0.090000   1.008000
 7110       HAL2    55  DPPC   H3Y  7110   0.090000   1.008000
 7111       CTL2    55  DPPC   C34  7111  -0.180000  12.011000
 7112       HAL2    55  DPPC   H4X  7112   0.090000   1.008000
 7113       HAL2    55  DPPC   H4Y  7113   0.090000   1.008000
 7114       CTL2    55  DPPC   C35  7114  -0.180000  12.011000
 7115       HAL2    55  DPPC   H5X  7115   0.090000   1.008000
 7116       HAL2    55  DPPC   H5Y  7116   0.090000   1.008000
 7117       CTL2    55  DPPC   C36  7117  -0.180000  12.011000
 7118       HAL2    55  DPPC   H6X  7118   0.090000   1.008000
 7119       HAL2    55  DPPC   H6Y  7119   0.090000   1.008000
 7120       CTL2    55  DPPC   C37  7120  -0.180000  12.011000
 7121       HAL2    55  DPPC   H7X  7121   0.090000   1.008000
 7122       HAL2    55  DPPC   H7Y  7122   0.090000   1.008000
 7123       CTL2    55  DPPC   C38  7123  -0.180000  12.011000
 7124       HAL2    55  DPPC   H8X  7124   0.090000   1.008000
 7125       HAL2    55  DPPC   H8Y  7125   0.090000   1.008000
 7126       CTL2    55  DPPC   C39  7126  -0.180000  12.011000
 7127       HAL2    55  DPPC   H9X  7127   0.090000   1.008000
 7128       HAL2    55  DPPC   H9Y  7128   0.090000   1.008000
 7129       CTL2    55  DPPC  C310  7129  -0.180000  12.011000
 7130       HAL2    55  DPPC  H10X  7130   0.090000   1.008000
 7131       HAL2    55  DPPC  H10Y  7131   0.090000   1.008000
 7132       CTL2    55  DPPC  C311  7132  -0.180000  12.011000
 7133       HAL2    55  DPPC  H11X  7133   0.090000   1.008000
 7134       HAL2    55  DPPC  H11Y  7134   0.090000   1.008000
 7135       CTL2    55  DPPC  C312  7135  -0.180000  12.011000
 7136       HAL2    55  DPPC  H12X  7136   0.090000   1.008000
 7137       HAL2    55  DPPC  H12Y  7137   0.090000   1.008000
 7138       CTL2    55  DPPC  C313  7138  -0.180000  12.011000
 7139       HAL2    55  DPPC  H13X  7139   0.090000   1.008000
 7140       HAL2    55  DPPC  H13Y  7140   0.090000   1.008000
 7141       CTL2    55  DPPC  C314  7141  -0.180000  12.011000
 7142       HAL2    55  DPPC  H14X  7142   0.090000   1.008000
 7143       HAL2    55  DPPC  H14Y  7143   0.090000   1.008000
 7144       CTL2    55  DPPC  C315  7144  -0.180000  12.011000
 7145       HAL2    55  DPPC  H15X  7145   0.090000   1.008000
 7146       HAL2    55  DPPC  H15Y  7146   0.090000   1.008000
 7147       CTL3    55  DPPC  C316  7147  -0.270000  12.011000
 7148       HAL3    55  DPPC  H16X  7148   0.090000   1.008000
 7149       HAL3    55  DPPC  H16Y  7149   0.090000   1.008000
 7150       HAL3    55  DPPC  H16Z  7150   0.090000   1.008000
 7151        NTL    56  DPPC     N  7151  -0.600000  14.007000
 7152       CTL5    56  DPPC   C13  7152  -0.350000  12.011000
 7153         HL    56  DPPC  H13A  7153   0.250000   1.008000
 7154         HL    56  DPPC  H13B  7154   0.250000   1.008000
 7155         HL    56  DPPC  H13C  7155   0.250000   1.008000
 7156       CTL5    56  DPPC   C14  7156  -0.350000  12.011000
 7157         HL    56  DPPC  H14A  7157   0.250000   1.008000
 7158         HL    56  DPPC  H14B  7158   0.250000   1.008000
 7159         HL    56  DPPC  H14C  7159   0.250000   1.008000
 7160       CTL5    56  DPPC   C15  7160  -0.350000  12.011000
 7161         HL    56  DPPC  H15A  7161   0.250000   1.008000
 7162         HL    56  DPPC  H15B  7162   0.250000   1.008000
 7163         HL    56  DPPC  H15C  7163   0.250000   1.008000
 7164       CTL2    56  DPPC   C12  7164  -0.100000  12.011000
 7165         HL    56  DPPC  H12A  7165   0.250000   1.008000
 7166         HL    56  DPPC  H12B  7166   0.250000   1.008000
 7167       CTL2    56  DPPC   C11  7167  -0.080000  12.011000
 7168       HAL2    56  DPPC  H11A  7168   0.090000   1.008000
 7169       HAL2    56  DPPC  H11B  7169   0.090000   1.008000
 7170         PL    56  DPPC     P  7170   1.500000  30.974001
 7171        O2L    56  DPPC   O13  7171  -0.780000  15.999400
 7172        O2L    56  DPPC   O14  7172  -0.780000  15.999400
 7173       OSLP    56  DPPC   O11  7173  -0.570000  15.999400
 7174       OSLP    56  DPPC   O12  7174  -0.570000  15.999400
 7175       CTL2    56  DPPC    C1  7175  -0.080000  12.011000
 7176       HAL2    56  DPPC    HA  7176   0.090000   1.008000
 7177       HAL2    56  DPPC    HB  7177   0.090000   1.008000
 7178       CTL1    56  DPPC    C2  7178   0.170000  12.011000
 7179       HAL1    56  DPPC    HS  7179   0.090000   1.008000
 7180        OSL    56  DPPC   O21  7180  -0.490000  15.999400
 7181         CL    56  DPPC   C21  7181   0.900000  12.011000
 7182        OBL    56  DPPC   O22  7182  -0.630000  15.999400
 7183       CTL2    56  DPPC   C22  7183  -0.220000  12.011000
 7184       HAL2    56  DPPC   H2R  7184   0.090000   1.008000
 7185       HAL2    56  DPPC   H2S  7185   0.090000   1.008000
 7186       CTL2    56  DPPC    C3  7186   0.080000  12.011000
 7187       HAL2    56  DPPC    HX  7187   0.090000   1.008000
 7188       HAL2    56  DPPC    HY  7188   0.090000   1.008000
 7189        OSL    56  DPPC   O31  7189  -0.490000  15.999400
 7190         CL    56  DPPC   C31  7190   0.900000  12.011000
 7191        OBL    56  DPPC   O32  7191  -0.630000  15.999400
 7192       CTL2    56  DPPC   C32  7192  -0.220000  12.011000
 7193       HAL2    56  DPPC   H2X  7193   0.090000   1.008000
 7194       HAL2    56  DPPC   H2Y  7194   0.090000   1.008000
 7195       CTL2    56  DPPC   C23  7195  -0.180000  12.011000
 7196       HAL2    56  DPPC   H3R  7196   0.090000   1.008000
 7197       HAL2    56  DPPC   H3S  7197   0.090000   1.008000
 7198       CTL2    56  DPPC   C24  7198  -0.180000  12.011000
 7199       HAL2    56  DPPC   H4R  7199   0.090000   1.008000
 7200       HAL2    56  DPPC   H4S  7200   0.090000   1.008000
 7201       CTL2    56  DPPC   C25  7201  -0.180000  12.011000
 7202       HAL2    56  DPPC   H5R  7202   0.090000   1.008000
 7203       HAL2    56  DPPC   H5S  7203   0.090000   1.008000
 7204       CTL2    56  DPPC   C26  7204  -0.180000  12.011000
 7205       HAL2    56  DPPC   H6R  7205   0.090000   1.008000
 7206       HAL2    56  DPPC   H6S  7206   0.090000   1.008000
 7207       CTL2    56  DPPC   C27  7207  -0.180000  12.011000
 7208       HAL2    56  DPPC   H7R  7208   0.090000   1.008000
 7209       HAL2    56  DPPC   H7S  7209   0.090000   1.008000
 7210       CTL2    56  DPPC   C28  7210  -0.180000  12.011000
 7211       HAL2    56  DPPC   H8R  7211   0.090000   1.008000
 7212       HAL2    56  DPPC   H8S  7212   0.090000   1.008000
 7213       CTL2    56  DPPC   C29  7213  -0.180000  12.011000
 7214       HAL2    56  DPPC   H9R  7214   0.090000   1.008000
 7215       HAL2    56  DPPC   H9S  7215   0.090000   1.008000
 7216       CTL2    56  DPPC  C210  7216  -0.180000  12.011000
 7217       HAL2    56  DPPC  H10R  7217   0.090000   1.008000
 7218       HAL2    56  DPPC  H10S  7218   0.090000   1.008000
 7219       CTL2    56  DPPC  C211  7219  -0.180000  12.011000
 7220       HAL2    56  DPPC  H11R  7220   0.090000   1.008000
 7221       HAL2    56  DPPC  H11S  7221   0.090000   1.008000
 7222       CTL2    56  DPPC  C212  7222  -0.180000  12.011000
 7223       HAL2    56  DPPC  H12R  7223   0.090000   1.008000
 7224       HAL2    56  DPPC  H12S  7224   0.090000   1.008000
 7225       CTL2    56  DPPC  C213  7225  -0.180000  12.011000
 7226       HAL2    56  DPPC  H13R  7226   0.090000   1.008000
 7227       HAL2    56  DPPC  H13S  7227   0.090000   1.008000
 7228       CTL2    56  DPPC  C214  7228  -0.180000  12.011000
 7229       HAL2    56  DPPC  H14R  7229   0.090000   1.008000
 7230       HAL2    56  DPPC  H14S  7230   0.090000   1.008000
 7231       CTL2    56  DPPC  C215  7231  -0.180000  12.011000
 7232       HAL2    56  DPPC  H15R  7232   0.090000   1.008000
 7233       HAL2    56  DPPC  H15S  7233   0.090000   1.008000
 7234       CTL3    56  DPPC  C216  7234  -0.270000  12.011000
 7235       HAL3    56  DPPC  H16R  7235   0.090000   1.008000
 7236       HAL3    56  DPPC  H16S  7236   0.090000   1.008000
 7237       HAL3    56  DPPC  H16T  7237   0.090000   1.008000
 7238       CTL2    56  DPPC   C33  7238  -0.180000  12.011000
 7239       HAL2    56  DPPC   H3X  7239   0.090000   1.008000
 7240       HAL2    56  DPPC   H3Y  7240   0.090000   1.008000
 7241       CTL2    56  DPPC   C34  7241  -0.180000  12.011000
 7242       HAL2    56  DPPC   H4X  7242   0.090000   1.008000
 7243       HAL2    56  DPPC   H4Y  7243   0.090000   1.008000
 7244       CTL2    56  DPPC   C35  7244  -0.180000  12.011000
 7245       HAL2    56  DPPC   H5X  7245   0.090000   1.008000
 7246       HAL2    56  DPPC   H5Y  7246   0.090000   1.008000
 7247       CTL2    56  DPPC   C36  7247  -0.180000  12.011000
 7248       HAL2    56  DPPC   H6X  7248   0.090000   1.008000
 7249       HAL2    56  DPPC   H6Y  7249   0.090000   1.008000
 7250       CTL2    56  DPPC   C37  7250  -0.180000  12.011000
 7251       HAL2    56  DPPC   H7X  7251   0.090000   1.008000
 7252       HAL2    56  DPPC   H7Y  7252   0.090000   1.008000
 7253       CTL2    56  DPPC   C38  7253  -0.180000  12.011000
 7254       HAL2    56  DPPC   H8X  7254   0.090000   1.008000
 7255       HAL2    56  DPPC   H8Y  7255   0.090000   1.008000
 7256       CTL2    56  DPPC   C39  7256  -0.180000  12.011000
 7257       HAL2    56  DPPC   H9X  7257   0.090000   1.008000
 7258       HAL2    56  DPPC   H9Y  7258   0.090000   1.008000
 7259       CTL2    56  DPPC  C310  7259  -0.180000  12.011000
 7260       HAL2    56  DPPC  H10X  7260   0.090000   1.008000
 7261       HAL2    56  DPPC  H10Y  7261   0.090000   1.008000
 7262       CTL2    56  DPPC  C311  7262  -0.180000  12.011000
 7263       HAL2    56  DPPC  H11X  7263   0.090000   1.008000
 7264       HAL2    56  DPPC  H11Y  7264   0.090000   1.008000
 7265       CTL2    56  DPPC  C312  7265  -0.180000  12.011000
 7266       HAL2    56  DPPC  H12X  7266   0.090000   1.008000
 7267       HAL2    56  DPPC  H12Y  7267   0.090000   1.008000
 7268       CTL2    56  DPPC  C313  7268  -0.180000  12.011000
 7269       HAL2    56  DPPC  H13X  7269   0.090000   1.008000
 7270       HAL2    56  DPPC  H13Y  7270   0.090000   1.008000
 7271       CTL2    56  DPPC  C314  7271  -0.180000  12.011000
 7272       HAL2    56  DPPC  H14X  7272   0.090000   1.008000
 7273       HAL2    56  DPPC  H14Y  7273   0.090000   1.008000
 7274       CTL2    56  DPPC  C315  7274  -0.180000  12.011000
 7275       HAL2    56  DPPC  H15X  7275   0.090000   1.008000
 7276       HAL2    56  DPPC  H15Y  7276   0.090000   1.008000
 7277       CTL3    56  DPPC  C316  7277  -0.270000  12.011000
 7278       HAL3    56  DPPC  H16X  7278   0.090000   1.008000
 7279       HAL3    56  DPPC  H16Y  7279   0.090000   1.008000
 7280       HAL3    56  DPPC  H16Z  7280   0.090000   1.008000
 7281        NTL    57  DPPC     N  7281  -0.600000  14.007000
 7282       CTL5    57  DPPC   C13  7282  -0.350000  12.011000
 7283         HL    57  DPPC  H13A  7283   0.250000   1.008000
 7284         HL    57  DPPC  H13B  7284   0.250000   1.008000
 7285         HL    57  DPPC  H13C  7285   0.250000   1.008000
 7286       CTL5    57  DPPC   C14  7286  -0.350000  12.011000
 7287         HL    57  DPPC  H14A  7287   0.250000   1.008000
 7288         HL    57  DPPC  H14B  7288   0.250000   1.008000
 7289         HL    57  DPPC  H14C  7289   0.250000   1.008000
 7290       CTL5    57  DPPC   C15  7290  -0.350000  12.011000
 7291         HL    57  DPPC  H15A  7291   0.250000   1.008000
 7292         HL    57  DPPC  H15B  7292   0.250000   1.008000
 7293         HL    57  DPPC  H15C  7293   0.250000   1.008000
 7294       CTL2    57  DPPC   C12  7294  -0.100000  12.011000
 7295         HL    57  DPPC  H12A  7295   0.250000   1.008000
 7296         HL    57  DPPC  H12B  7296   0.250000   1.008000
 7297       CTL2    57  DPPC   C11  7297  -0.080000  12.011000
 7298       HAL2    57  DPPC  H11A  7298   0.090000   1.008000
 7299       HAL2    57  DPPC  H11B  7299   0.090000   1.008000
 7300         PL    57  DPPC     P  7300   1.500000  30.974001
 7301        O2L    57  DPPC   O13  7301  -0.780000  15.999400
 7302        O2L    57  DPPC   O14  7302  -0.780000  15.999400
 7303       OSLP    57  DPPC   O11  7303  -0.570000  15.999400
 7304       OSLP    57  DPPC   O12  7304  -0.570000  15.999400
 7305       CTL2    57  DPPC    C1  7305  -0.080000  12.011000
 7306       HAL2    57  DPPC    HA  7306   0.090000   1.008000
 7307       HAL2    57  DPPC    HB  7307   0.090000   1.008000
 7308       CTL1    57  DPPC    C2  7308   0.170000  12.011000
 7309       HAL1    57  DPPC    HS  7309   0.090000   1.008000
 7310        OSL    57  DPPC   O21  7310  -0.490000  15.999400
 7311         CL    57  DPPC   C21  7311   0.900000  12.011000
 7312        OBL    57  DPPC   O22  7312  -0.630000  15.999400
 7313       CTL2    57  DPPC   C22  7313  -0.220000  12.011000
 7314       HAL2    57  DPPC   H2R  7314   0.090000   1.008000
 7315       HAL2    57  DPPC   H2S  7315   0.090000   1.008000
 7316       CTL2    57  DPPC    C3  7316   0.080000  12.011000
 7317       HAL2    57  DPPC    HX  7317   0.090000   1.008000
 7318       HAL2    57  DPPC    HY  7318   0.090000   1.008000
 7319        OSL    57  DPPC   O31  7319  -0.490000  15.999400
 7320         CL    57  DPPC   C31  7320   0.900000  12.011000
 7321        OBL    57  DPPC   O32  7321  -0.630000  15.999400
 7322       CTL2    57  DPPC   C32  7322  -0.220000  12.011000
 7323       HAL2    57  DPPC   H2X  7323   0.090000   1.008000
 7324       HAL2    57  DPPC   H2Y  7324   0.090000   1.008000
 7325       CTL2    57  DPPC   C23  7325  -0.180000  12.011000
 7326       HAL2    57  DPPC   H3R  7326   0.090000   1.008000
 7327       HAL2    57  DPPC   H3S  7327   0.090000   1.008000
 7328       CTL2    57  DPPC   C24  7328  -0.180000  12.011000
 7329       HAL2    57  DPPC   H4R  7329   0.090000   1.008000
 7330       HAL2    57  DPPC   H4S  7330   0.090000   1.008000
 7331       CTL2    57  DPPC   C25  7331  -0.180000  12.011000
 7332       HAL2    57  DPPC   H5R  7332   0.090000   1.008000
 7333       HAL2    57  DPPC   H5S  7333   0.090000   1.008000
 7334       CTL2    57  DPPC   C26  7334  -0.180000  12.011000
 7335       HAL2    57  DPPC   H6R  7335   0.090000   1.008000
 7336       HAL2    57  DPPC   H6S  7336   0.090000   1.008000
 7337       CTL2    57  DPPC   C27  7337  -0.180000  12.011000
 7338       HAL2    57  DPPC   H7R  7338   0.090000   1.008000
 7339       HAL2    57  DPPC   H7S  7339   0.090000   1.008000
 7340       CTL2    57  DPPC   C28  7340  -0.180000  12.011000
 7341       HAL2    57  DPPC   H8R  7341   0.090000   1.008000
 7342       HAL2    57  DPPC   H8S  7342   0.090000   1.008000
 7343       CTL2    57  DPPC   C29  7343  -0.180000  12.011000
 7344       HAL2    57  DPPC   H9R  7344   0.090000   1.008000
 7345       HAL2    57  DPPC   H9S  7345   0.090000   1.008000
 7346       CTL2    57  DPPC  C210  7346  -0.180000  12.011000
 7347       HAL2    57  DPPC  H10R  7347   0.090000   1.008000
 7348       HAL2    57  DPPC  H10S  7348   0.090000   1.008000
 7349       CTL2    57  DPPC  C211  7349  -0.180000  12.011000
 7350       HAL2    57  DPPC  H11R  7350   0.090000   1.008000
 7351       HAL2    57  DPPC  H11S  7351   0.090000   1.008000
 7352       CTL2    57  DPPC  C212  7352  -0.180000  12.011000
 7353       HAL2    57  DPPC  H12R  7353   0.090000   1.008000
 7354       HAL2    57  DPPC  H12S  7354   0.090000   1.008000
 7355       CTL2    57  DPPC  C213  7355  -0.180000  12.011000
 7356       HAL2    57  DPPC  H13R  7356   0.090000   1.008000
 7357       HAL2    57  DPPC  H13S  7357   0.090000   1.008000
 7358       CTL2    57  DPPC  C214  7358  -0.180000  12.011000
 7359       HAL2    57  DPPC  H14R  7359   0.090000   1.008000
 7360       HAL2    57  DPPC  H14S  7360   0.090000   1.008000
 7361       CTL2    57  DPPC  C215  7361  -0.180000  12.011000
 7362       HAL2    57  DPPC  H15R  7362   0.090000   1.008000
 7363       HAL2    57  DPPC  H15S  7363   0.090000   1.008000
 7364       CTL3    57  DPPC  C216  7364  -0.270000  12.011000
 7365       HAL3    57  DPPC  H16R  7365   0.090000   1.008000
 7366       HAL3    57  DPPC  H16S  7366   0.090000   1.008000
 7367       HAL3    57  DPPC  H16T  7367   0.090000   1.008000
 7368       CTL2    57  DPPC   C33  7368  -0.180000  12.011000
 7369       HAL2    57  DPPC   H3X  7369   0.090000   1.008000
 7370       HAL2    57  DPPC   H3Y  7370   0.090000   1.008000
 7371       CTL2    57  DPPC   C34  7371  -0.180000  12.011000
 7372       HAL2    57  DPPC   H4X  7372   0.090000   1.008000
 7373       HAL2    57  DPPC   H4Y  7373   0.090000   1.008000
 7374       CTL2    57  DPPC   C35  7374  -0.180000  12.011000
 7375       HAL2    57  DPPC   H5X  7375   0.090000   1.008000
 7376       HAL2    57  DPPC   H5Y  7376   0.090000   1.008000
 7377       CTL2    57  DPPC   C36  7377  -0.180000  12.011000
 7378       HAL2    57  DPPC   H6X  7378   0.090000   1.008000
 7379       HAL2    57  DPPC   H6Y  7379   0.090000   1.008000
 7380       CTL2    57  DPPC   C37  7380  -0.180000  12.011000
 7381       HAL2    57  DPPC   H7X  7381   0.090000   1.008000
 7382       HAL2    57  DPPC   H7Y  7382   0.090000   1.008000
 7383       CTL2    57  DPPC   C38  7383  -0.180000  12.011000
 7384       HAL2    57  DPPC   H8X  7384   0.090000   1.008000
 7385       HAL2    57  DPPC   H8Y  7385   0.090000   1.008000
 7386       CTL2    57  DPPC   C39  7386  -0.180000  12.011000
 7387       HAL2    57  DPPC   H9X  7387   0.090000   1.008000
 7388       HAL2    57  DPPC   H9Y  7388   0.090000   1.008000
 7389       CTL2    57  DPPC  C310  7389  -0.180000  12.011000
 7390       HAL2    57  DPPC  H10X  7390   0.090000   1.008000
 7391       HAL2    57  DPPC  H10Y  7391   0.090000   1.008000
 7392       CTL2    57  DPPC  C311  7392  -0.180000  12.011000
 7393       HAL2    57  DPPC  H11X  7393   0.090000   1.008000
 7394       HAL2    57  DPPC  H11Y  7394   0.090000   1.008000
 7395       CTL2    57  DPPC  C312  7395  -0.180000  12.011000
 7396       HAL2    57  DPPC  H12X  7396   0.090000   1.008000
 7397       HAL2    57  DPPC  H12Y  7397   0.090000   1.008000
 7398       CTL2    57  DPPC  C313  7398  -0.180000  12.011000
 7399       HAL2    57  DPPC  H13X  7399   0.090000   1.008000
 7400       HAL2    57  DPPC  H13Y  7400   0.090000   1.008000
 7401       CTL2    57  DPPC  C314  7401  -0.180000  12.011000
 7402       HAL2    57  DPPC  H14X  7402   0.090000   1.008000
 7403       HAL2    57  DPPC  H14Y  7403   0.090000   1.008000
 7404       CTL2    57  DPPC  C315  7404  -0.180000  12.011000
 7405       HAL2    57  DPPC  H15X  7405   0.090000   1.008000
 7406       HAL2    57  DPPC  H15Y  7406   0.090000   1.008000
 7407       CTL3    57  DPPC  C316  7407  -0.270000  12.011000
 7408       HAL3    57  DPPC  H16X  7408   0.090000   1.008000
 7409       HAL3    57  DPPC  H16Y  7409   0.090000   1.008000
 7410       HAL3    57  DPPC  H16Z  7410   0.090000   1.008000
 7411        NTL    58  DPPC     N  7411  -0.600000  14.007000
 7412       CTL5    58  DPPC   C13  7412  -0.350000  12.011000
 7413         HL    58  DPPC  H13A  7413   0.250000   1.008000
 7414         HL    58  DPPC  H13B  7414   0.250000   1.008000
 7415         HL    58  DPPC  H13C  7415   0.250000   1.008000
 7416       CTL5    58  DPPC   C14  7416  -0.350000  12.011000
 7417         HL    58  DPPC  H14A  7417   0.250000   1.008000
 7418         HL    58  DPPC  H14B  7418   0.250000   1.008000
 7419         HL    58  DPPC  H14C  7419   0.250000   1.008000
 7420       CTL5    58  DPPC   C15  7420  -0.350000  12.011000
 7421         HL    58  DPPC  H15A  7421   0.250000   1.008000
 7422         HL    58  DPPC  H15B  7422   0.250000   1.008000
 7423         HL    58  DPPC  H15C  7423   0.250000   1.008000
 7424       CTL2    58  DPPC   C12  7424  -0.100000  12.011000
 7425         HL    58  DPPC  H12A  7425   0.250000   1.008000
 7426         HL    58  DPPC  H12B  7426   0.250000   1.008000
 7427       CTL2    58  DPPC   C11  7427  -0.080000  12.011000
 7428       HAL2    58  DPPC  H11A  7428   0.090000   1.008000
 7429       HAL2    58  DPPC  H11B  7429   0.090000   1.008000
 7430         PL    58  DPPC     P  7430   1.500000  30.974001
 7431        O2L    58  DPPC   O13  7431  -0.780000  15.999400
 7432        O2L    58  DPPC   O14  7432  -0.780000  15.999400
 7433       OSLP    58  DPPC   O11  7433  -0.570000  15.999400
 7434       OSLP    58  DPPC   O12  7434  -0.570000  15.999400
 7435       CTL2    58  DPPC    C1  7435  -0.080000  12.011000
 7436       HAL2    58  DPPC    HA  7436   0.090000   1.008000
 7437       HAL2    58  DPPC    HB  7437   0.090000   1.008000
 7438       CTL1    58  DPPC    C2  7438   0.170000  12.011000
 7439       HAL1    58  DPPC    HS  7439   0.090000   1.008000
 7440        OSL    58  DPPC   O21  7440  -0.490000  15.999400
 7441         CL    58  DPPC   C21  7441   0.900000  12.011000
 7442        OBL    58  DPPC   O22  7442  -0.630000  15.999400
 7443       CTL2    58  DPPC   C22  7443  -0.220000  12.011000
 7444       HAL2    58  DPPC   H2R  7444   0.090000   1.008000
 7445       HAL2    58  DPPC   H2S  7445   0.090000   1.008000
 7446       CTL2    58  DPPC    C3  7446   0.080000  12.011000
 7447       HAL2    58  DPPC    HX  7447   0.090000   1.008000
 7448       HAL2    58  DPPC    HY  7448   0.090000   1.008000
 7449        OSL    58  DPPC   O31  7449  -0.490000  15.999400
 7450         CL    58  DPPC   C31  7450   0.900000  12.011000
 7451        OBL    58  DPPC   O32  7451  -0.630000  15.999400
 7452       CTL2    58  DPPC   C32  7452  -0.220000  12.011000
 7453       HAL2    58  DPPC   H2X  7453   0.090000   1.008000
 7454       HAL2    58  DPPC   H2Y  7454   0.090000   1.008000
 7455       CTL2    58  DPPC   C23  7455  -0.180000  12.011000
 7456       HAL2    58  DPPC   H3R  7456   0.090000   1.008000
 7457       HAL2    58  DPPC   H3S  7457   0.090000   1.008000
 7458       CTL2    58  DPPC   C24  7458  -0.180000  12.011000
 7459       HAL2    58  DPPC   H4R  7459   0.090000   1.008000
 7460       HAL2    58  DPPC   H4S  7460   0.090000   1.008000
 7461       CTL2    58  DPPC   C25  7461  -0.180000  12.011000
 7462       HAL2    58  DPPC   H5R  7462   0.090000   1.008000
 7463       HAL2    58  DPPC   H5S  7463   0.090000   1.008000
 7464       CTL2    58  DPPC   C26  7464  -0.180000  12.011000
 7465       HAL2    58  DPPC   H6R  7465   0.090000   1.008000
 7466       HAL2    58  DPPC   H6S  7466   0.090000   1.008000
 7467       CTL2    58  DPPC   C27  7467  -0.180000  12.011000
 7468       HAL2    58  DPPC   H7R  7468   0.090000   1.008000
 7469       HAL2    58  DPPC   H7S  7469   0.090000   1.008000
 7470       CTL2    58  DPPC   C28  7470  -0.180000  12.011000
 7471       HAL2    58  DPPC   H8R  7471   0.090000   1.008000
 7472       HAL2    58  DPPC   H8S  7472   0.090000   1.008000
 7473       CTL2    58  DPPC   C29  7473  -0.180000  12.011000
 7474       HAL2    58  DPPC   H9R  7474   0.090000   1.008000
 7475       HAL2    58  DPPC   H9S  7475   0.090000   1.008000
 7476       CTL2    58  DPPC  C210  7476  -0.180000  12.011000
 7477       HAL2    58  DPPC  H10R  7477   0.090000   1.008000
 7478       HAL2    58  DPPC  H10S  7478   0.090000   1.008000
 7479       CTL2    58  DPPC  C211  7479  -0.180000  12.011000
 7480       HAL2    58  DPPC  H11R  7480   0.090000   1.008000
 7481       HAL2    58  DPPC  H11S  7481   0.090000   1.008000
 7482       CTL2    58  DPPC  C212  7482  -0.180000  12.011000
 7483       HAL2    58  DPPC  H12R  7483   0.090000   1.008000
 7484       HAL2    58  DPPC  H12S  7484   0.090000   1.008000
 7485       CTL2    58  DPPC  C213  7485  -0.180000  12.011000
 7486       HAL2    58  DPPC  H13R  7486   0.090000   1.008000
 7487       HAL2    58  DPPC  H13S  7487   0.090000   1.008000
 7488       CTL2    58  DPPC  C214  7488  -0.180000  12.011000
 7489       HAL2    58  DPPC  H14R  7489   0.090000   1.008000
 7490       HAL2    58  DPPC  H14S  7490   0.090000   1.008000
 7491       CTL2    58  DPPC  C215  7491  -0.180000  12.011000
 7492       HAL2    58  DPPC  H15R  7492   0.090000   1.008000
 7493       HAL2    58  DPPC  H15S  7493   0.090000   1.008000
 7494       CTL3    58  DPPC  C216  7494  -0.270000  12.011000
 7495       HAL3    58  DPPC  H16R  7495   0.090000   1.008000
 7496       HAL3    58  DPPC  H16S  7496   0.090000   1.008000
 7497       HAL3    58  DPPC  H16T  7497   0.090000   1.008000
 7498       CTL2    58  DPPC   C33  7498  -0.180000  12.011000
 7499       HAL2    58  DPPC   H3X  7499   0.090000   1.008000
 7500       HAL2    58  DPPC   H3Y  7500   0.090000   1.008000
 7501       CTL2    58  DPPC   C34  7501  -0.180000  12.011000
 7502       HAL2    58  DPPC   H4X  7502   0.090000   1.008000
 7503       HAL2    58  DPPC   H4Y  7503   0.090000   1.008000
 7504       CTL2    58  DPPC   C35  7504  -0.180000  12.011000
 7505       HAL2    58  DPPC   H5X  7505   0.090000   1.008000
 7506       HAL2    58  DPPC   H5Y  7506   0.090000   1.008000
 7507       CTL2    58  DPPC   C36  7507  -0.180000  12.011000
 7508       HAL2    58  DPPC   H6X  7508   0.090000   1.008000
 7509       HAL2    58  DPPC   H6Y  7509   0.090000   1.008000
 7510       CTL2    58  DPPC   C37  7510  -0.180000  12.011000
 7511       HAL2    58  DPPC   H7X  7511   0.090000   1.008000
 7512       HAL2    58  DPPC   H7Y  7512   0.090000   1.008000
 7513       CTL2    58  DPPC   C38  7513  -0.180000  12.011000
 7514       HAL2    58  DPPC   H8X  7514   0.090000   1.008000
 7515       HAL2    58  DPPC   H8Y  7515   0.090000   1.008000
 7516       CTL2    58  DPPC   C39  7516  -0.180000  12.011000
 7517       HAL2    58  DPPC   H9X  7517   0.090000   1.008000
 7518       HAL2    58  DPPC   H9Y  7518   0.090000   1.008000
 7519       CTL2    58  DPPC  C310  7519  -0.180000  12.011000
 7520       HAL2    58  DPPC  H10X  7520   0.090000   1.008000
 7521       HAL2    58  DPPC  H10Y  7521   0.090000   1.008000
 7522       CTL2    58  DPPC  C311  7522  -0.180000  12.011000
 7523       HAL2    58  DPPC  H11X  7523   0.090000   1.008000
 7524       HAL2    58  DPPC  H11Y  7524   0.090000   1.008000
 7525       CTL2    58  DPPC  C312  7525  -0.180000  12.011000
 7526       HAL2    58  DPPC  H12X  7526   0.090000   1.008000
 7527       HAL2    58  DPPC  H12Y  7527   0.090000   1.008000
 7528       CTL2    58  DPPC  C313  7528  -0.180000  12.011000
 7529       HAL2    58  DPPC  H13X  7529   0.090000   1.008000
 7530       HAL2    58  DPPC  H13Y  7530   0.090000   1.008000
 7531       CTL2    58  DPPC  C314  7531  -0.180000  12.011000
 7532       HAL2    58  DPPC  H14X  7532   0.090000   1.008000
 7533       HAL2    58  DPPC  H14Y  7533   0.090000   1.008000
 7534       CTL2    58  DPPC  C315  7534  -0.180000  12.011000
 7535       HAL2    58  DPPC  H15X  7535   0.090000   1.008000
 7536       HAL2    58  DPPC  H15Y  7536   0.090000   1.008000
 7537       CTL3    58  DPPC  C316  7537  -0.270000  12.011000
 7538       HAL3    58  DPPC  H16X  7538   0.090000   1.008000
 7539       HAL3    58  DPPC  H16Y  7539   0.090000   1.008000
 7540       HAL3    58  DPPC  H16Z  7540   0.090000   1.008000
 7541        NTL    59  DPPC     N  7541  -0.600000  14.007000
 7542       CTL5    59  DPPC   C13  7542  -0.350000  12.011000
 7543         HL    59  DPPC  H13A  7543   0.250000   1.008000
 7544         HL    59  DPPC  H13B  7544   0.250000   1.008000
 7545         HL    59  DPPC  H13C  7545   0.250000   1.008000
 7546       CTL5    59  DPPC   C14  7546  -0.350000  12.011000
 7547         HL    59  DPPC  H14A  7547   0.250000   1.008000
 7548         HL    59  DPPC  H14B  7548   0.250000   1.008000
 7549         HL    59  DPPC  H14C  7549   0.250000   1.008000
 7550       CTL5    59  DPPC   C15  7550  -0.350000  12.011000
 7551         HL    59  DPPC  H15A  7551   0.250000   1.008000
 7552         HL    59  DPPC  H15B  7552   0.250000   1.008000
 7553         HL    59  DPPC  H15C  7553   0.250000   1.008000
 7554       CTL2    59  DPPC   C12  7554  -0.100000  12.011000
 7555         HL    59  DPPC  H12A  7555   0.250000   1.008000
 7556         HL    59  DPPC  H12B  7556   0.250000   1.008000
 7557       CTL2    59  DPPC   C11  7557  -0.080000  12.011000
 7558       HAL2    59  DPPC  H11A  7558   0.090000   1.008000
 7559       HAL2    59  DPPC  H11B  7559   0.090000   1.008000
 7560         PL    59  DPPC     P  7560   1.500000  30.974001
 7561        O2L    59  DPPC   O13  7561  -0.780000  15.999400
 7562        O2L    59  DPPC   O14  7562  -0.780000  15.999400
 7563       OSLP    59  DPPC   O11  7563  -0.570000  15.999400
 7564       OSLP    59  DPPC   O12  7564  -0.570000  15.999400
 7565       CTL2    59  DPPC    C1  7565  -0.080000  12.011000
 7566       HAL2    59  DPPC    HA  7566   0.090000   1.008000
 7567       HAL2    59  DPPC    HB  7567   0.090000   1.008000
 7568       CTL1    59  DPPC    C2  7568   0.170000  12.011000
 7569       HAL1    59  DPPC    HS  7569   0.090000   1.008000
 7570        OSL    59  DPPC   O21  7570  -0.490000  15.999400
 7571         CL    59  DPPC   C21  7571   0.900000  12.011000
 7572        OBL    59  DPPC   O22  7572  -0.630000  15.999400
 7573       CTL2    59  DPPC   C22  7573  -0.220000  12.011000
 7574       HAL2    59  DPPC   H2R  7574   0.090000   1.008000
 7575       HAL2    59  DPPC   H2S  7575   0.090000   1.008000
 7576       CTL2    59  DPPC    C3  7576   0.080000  12.011000
 7577       HAL2    59  DPPC    HX  7577   0.090000   1.008000
 7578       HAL2    59  DPPC    HY  7578   0.090000   1.008000
 7579        OSL    59  DPPC   O31  7579  -0.490000  15.999400
 7580         CL    59  DPPC   C31  7580   0.900000  12.011000
 7581        OBL    59  DPPC   O32  7581  -0.630000  15.999400
 7582       CTL2    59  DPPC   C32  7582  -0.220000  12.011000
 7583       HAL2    59  DPPC   H2X  7583   0.090000   1.008000
 7584       HAL2    59  DPPC   H2Y  7584   0.090000   1.008000
 7585       CTL2    59  DPPC   C23  7585  -0.180000  12.011000
 7586       HAL2    59  DPPC   H3R  7586   0.090000   1.008000
 7587       HAL2    59  DPPC   H3S  7587   0.090000   1.008000
 7588       CTL2    59  DPPC   C24  7588  -0.180000  12.011000
 7589       HAL2    59  DPPC   H4R  7589   0.090000   1.008000
 7590       HAL2    59  DPPC   H4S  7590   0.090000   1.008000
 7591       CTL2    59  DPPC   C25  7591  -0.180000  12.011000
 7592       HAL2    59  DPPC   H5R  7592   0.090000   1.008000
 7593       HAL2    59  DPPC   H5S  7593   0.090000   1.008000
 7594       CTL2    59  DPPC   C26  7594  -0.180000  12.011000
 7595       HAL2    59  DPPC   H6R  7595   0.090000   1.008000
 7596       HAL2    59  DPPC   H6S  7596   0.090000   1.008000
 7597       CTL2    59  DPPC   C27  7597  -0.180000  12.011000
 7598       HAL2    59  DPPC   H7R  7598   0.090000   1.008000
 7599       HAL2    59  DPPC   H7S  7599   0.090000   1.008000
 7600       CTL2    59  DPPC   C28  7600  -0.180000  12.011000
 7601       HAL2    59  DPPC   H8R  7601   0.090000   1.008000
 7602       HAL2    59  DPPC   H8S  7602   0.090000   1.008000
 7603       CTL2    59  DPPC   C29  7603  -0.180000  12.011000
 7604       HAL2    59  DPPC   H9R  7604   0.090000   1.008000
 7605       HAL2    59  DPPC   H9S  7605   0.090000   1.008000
 7606       CTL2    59  DPPC  C210  7606  -0.180000  12.011000
 7607       HAL2    59  DPPC  H10R  7607   0.090000   1.008000
 7608       HAL2    59  DPPC  H10S  7608   0.090000   1.008000
 7609       CTL2    59  DPPC  C211  7609  -0.180000  12.011000
 7610       HAL2    59  DPPC  H11R  7610   0.090000   1.008000
 7611       HAL2    59  DPPC  H11S  7611   0.090000   1.008000
 7612       CTL2    59  DPPC  C212  7612  -0.180000  12.011000
 7613       HAL2    59  DPPC  H12R  7613   0.090000   1.008000
 7614       HAL2    59  DPPC  H12S  7614   0.090000   1.008000
 7615       CTL2    59  DPPC  C213  7615  -0.180000  12.011000
 7616       HAL2    59  DPPC  H13R  7616   0.090000   1.008000
 7617       HAL2    59  DPPC  H13S  7617   0.090000   1.008000
 7618       CTL2    59  DPPC  C214  7618  -0.180000  12.011000
 7619       HAL2    59  DPPC  H14R  7619   0.090000   1.008000
 7620       HAL2    59  DPPC  H14S  7620   0.090000   1.008000
 7621       CTL2    59  DPPC  C215  7621  -0.180000  12.011000
 7622       HAL2    59  DPPC  H15R  7622   0.090000   1.008000
 7623       HAL2    59  DPPC  H15S  7623   0.090000   1.008000
 7624       CTL3    59  DPPC  C216  7624  -0.270000  12.011000
 7625       HAL3    59  DPPC  H16R  7625   0.090000   1.008000
 7626       HAL3    59  DPPC  H16S  7626   0.090000   1.008000
 7627       HAL3    59  DPPC  H16T  7627   0.090000   1.008000
 7628       CTL2    59  DPPC   C33  7628  -0.180000  12.011000
 7629       HAL2    59  DPPC   H3X  7629   0.090000   1.008000
 7630       HAL2    59  DPPC   H3Y  7630   0.090000   1.008000
 7631       CTL2    59  DPPC   C34  7631  -0.180000  12.011000
 7632       HAL2    59  DPPC   H4X  7632   0.090000   1.008000
 7633       HAL2    59  DPPC   H4Y  7633   0.090000   1.008000
 7634       CTL2    59  DPPC   C35  7634  -0.180000  12.011000
 7635       HAL2    59  DPPC   H5X  7635   0.090000   1.008000
 7636       HAL2    59  DPPC   H5Y  7636   0.090000   1.008000
 7637       CTL2    59  DPPC   C36  7637  -0.180000  12.011000
 7638       HAL2    59  DPPC   H6X  7638   0.090000   1.008000
 7639       HAL2    59  DPPC   H6Y  7639   0.090000   1.008000
 7640       CTL2    59  DPPC   C37  7640  -0.180000  12.011000
 7641       HAL2    59  DPPC   H7X  7641   0.090000   1.008000
 7642       HAL2    59  DPPC   H7Y  7642   0.090000   1.008000
 7643       CTL2    59  DPPC   C38  7643  -0.180000  12.011000
 7644       HAL2    59  DPPC   H8X  7644   0.090000   1.008000
 7645       HAL2    59  DPPC   H8Y  7645   0.090000   1.008000
 7646       CTL2    59  DPPC   C39  7646  -0.180000  12.011000
 7647       HAL2    59  DPPC   H9X  7647   0.090000   1.008000
 7648       HAL2    59  DPPC   H9Y  7648   0.090000   1.008000
 7649       CTL2    59  DPPC  C310  7649  -0.180000  12.011000
 7650       HAL2    59  DPPC  H10X  7650   0.090000   1.008000
 7651       HAL2    59  DPPC  H10Y  7651   0.090000   1.008000
 7652       CTL2    59  DPPC  C311  7652  -0.180000  12.011000
 7653       HAL2    59  DPPC  H11X  7653   0.090000   1.008000
 7654       HAL2    59  DPPC  H11Y  7654   0.090000   1.008000
 7655       CTL2    59  DPPC  C312  7655  -0.180000  12.011000
 7656       HAL2    59  DPPC  H12X  7656   0.090000   1.008000
 7657       HAL2    59  DPPC  H12Y  7657   0.090000   1.008000
 7658       CTL2    59  DPPC  C313  7658  -0.180000  12.011000
 7659       HAL2    59  DPPC  H13X  7659   0.090000   1.008000
 7660       HAL2    59  DPPC  H13Y  7660   0.090000   1.008000
 7661       CTL2    59  DPPC  C314  7661  -0.180000  12.011000
 7662       HAL2    59  DPPC  H14X  7662   0.090000   1.008000
 7663       HAL2    59  DPPC  H14Y  7663   0.090000   1.008000
 7664       CTL2    59  DPPC  C315  7664  -0.180000  12.011000
 7665       HAL2    59  DPPC  H15X  7665   0.090000   1.008000
 7666       HAL2    59  DPPC  H15Y  7666   0.090000   1.008000
 7667       CTL3    59  DPPC  C316  7667  -0.270000  12.011000
 7668       HAL3    59  DPPC  H16X  7668   0.090000   1.008000
 7669       HAL3    59  DPPC  H16Y  7669   0.090000   1.008000
 7670       HAL3    59  DPPC  H16Z  7670   0.090000   1.008000
 7671        NTL    60  DPPC     N  7671  -0.600000  14.007000
 7672       CTL5    60  DPPC   C13  7672  -0.350000  12.011000
 7673         HL    60  DPPC  H13A  7673   0.250000   1.008000
 7674         HL    60  DPPC  H13B  7674   0.250000   1.008000
 7675         HL    60  DPPC  H13C  7675   0.250000   1.008000
 7676       CTL5    60  DPPC   C14  7676  -0.350000  12.011000
 7677         HL    60  DPPC  H14A  7677   0.250000   1.008000
 7678         HL    60  DPPC  H14B  7678   0.250000   1.008000
 7679         HL    60  DPPC  H14C  7679   0.250000   1.008000
 7680       CTL5    60  DPPC   C15  7680  -0.350000  12.011000
 7681         HL    60  DPPC  H15A  7681   0.250000   1.008000
 7682         HL    60  DPPC  H15B  7682   0.250000   1.008000
 7683         HL    60  DPPC  H15C  7683   0.250000   1.008000
 7684       CTL2    60  DPPC   C12  7684  -0.100000  12.011000
 7685         HL    60  DPPC  H12A  7685   0.250000   1.008000
 7686         HL    60  DPPC  H12B  7686   0.250000   1.008000
 7687       CTL2    60  DPPC   C11  7687  -0.080000  12.011000
 7688       HAL2    60  DPPC  H11A  7688   0.090000   1.008000
 7689       HAL2    60  DPPC  H11B  7689   0.090000   1.008000
 7690         PL    60  DPPC     P  7690   1.500000  30.974001
 7691        O2L    60  DPPC   O13  7691  -0.780000  15.999400
 7692        O2L    60  DPPC   O14  7692  -0.780000  15.999400
 7693       OSLP    60  DPPC   O11  7693  -0.570000  15.999400
 7694       OSLP    60  DPPC   O12  7694  -0.570000  15.999400
 7695       CTL2    60  DPPC    C1  7695  -0.080000  12.011000
 7696       HAL2    60  DPPC    HA  7696   0.090000   1.008000
 7697       HAL2    60  DPPC    HB  7697   0.090000   1.008000
 7698       CTL1    60  DPPC    C2  7698   0.170000  12.011000
 7699       HAL1    60  DPPC    HS  7699   0.090000   1.008000
 7700        OSL    60  DPPC   O21  7700  -0.490000  15.999400
 7701         CL    60  DPPC   C21  7701   0.900000  12.011000
 7702        OBL    60  DPPC   O22  7702  -0.630000  15.999400
 7703       CTL2    60  DPPC   C22  7703  -0.220000  12.011000
 7704       HAL2    60  DPPC   H2R  7704   0.090000   1.008000
 7705       HAL2    60  DPPC   H2S  7705   0.090000   1.008000
 7706       CTL2    60  DPPC    C3  7706   0.080000  12.011000
 7707       HAL2    60  DPPC    HX  7707   0.090000   1.008000
 7708       HAL2    60  DPPC    HY  7708   0.090000   1.008000
 7709        OSL    60  DPPC   O31  7709  -0.490000  15.999400
 7710         CL    60  DPPC   C31  7710   0.900000  12.011000
 7711        OBL    60  DPPC   O32  7711  -0.630000  15.999400
 7712       CTL2    60  DPPC   C32  7712  -0.220000  12.011000
 7713       HAL2    60  DPPC   H2X  7713   0.090000   1.008000
 7714       HAL2    60  DPPC   H2Y  7714   0.090000   1.008000
 7715       CTL2    60  DPPC   C23  7715  -0.180000  12.011000
 7716       HAL2    60  DPPC   H3R  7716   0.090000   1.008000
 7717       HAL2    60  DPPC   H3S  7717   0.090000   1.008000
 7718       CTL2    60  DPPC   C24  7718  -0.180000  12.011000
 7719       HAL2    60  DPPC   H4R  7719   0.090000   1.008000
 7720       HAL2    60  DPPC   H4S  7720   0.090000   1.008000
 7721       CTL2    60  DPPC   C25  7721  -0.180000  12.011000
 7722       HAL2    60  DPPC   H5R  7722   0.090000   1.008000
 7723       HAL2    60  DPPC   H5S  7723   0.090000   1.008000
 7724       CTL2    60  DPPC   C26  7724  -0.180000  12.011000
 7725       HAL2    60  DPPC   H6R  7725   0.090000   1.008000
 7726       HAL2    60  DPPC   H6S  7726   0.090000   1.008000
 7727       CTL2    60  DPPC   C27  7727  -0.180000  12.011000
 7728       HAL2    60  DPPC   H7R  7728   0.090000   1.008000
 7729       HAL2    60  DPPC   H7S  7729   0.090000   1.008000
 7730       CTL2    60  DPPC   C28  7730  -0.180000  12.011000
 7731       HAL2    60  DPPC   H8R  7731   0.090000   1.008000
 7732       HAL2    60  DPPC   H8S  7732   0.090000   1.008000
 7733       CTL2    60  DPPC   C29  7733  -0.180000  12.011000
 7734       HAL2    60  DPPC   H9R  7734   0.090000   1.008000
 7735       HAL2    60  DPPC   H9S  7735   0.090000   1.008000
 7736       CTL2    60  DPPC  C210  7736  -0.180000  12.011000
 7737       HAL2    60  DPPC  H10R  7737   0.090000   1.008000
 7738       HAL2    60  DPPC  H10S  7738   0.090000   1.008000
 7739       CTL2    60  DPPC  C211  7739  -0.180000  12.011000
 7740       HAL2    60  DPPC  H11R  7740   0.090000   1.008000
 7741       HAL2    60  DPPC  H11S  7741   0.090000   1.008000
 7742       CTL2    60  DPPC  C212  7742  -0.180000  12.011000
 7743       HAL2    60  DPPC  H12R  7743   0.090000   1.008000
 7744       HAL2    60  DPPC  H12S  7744   0.090000   1.008000
 7745       CTL2    60  DPPC  C213  7745  -0.180000  12.011000
 7746       HAL2    60  DPPC  H13R  7746   0.090000   1.008000
 7747       HAL2    60  DPPC  H13S  7747   0.090000   1.008000
 7748       CTL2    60  DPPC  C214  7748  -0.180000  12.011000
 7749       HAL2    60  DPPC  H14R  7749   0.090000   1.008000
 7750       HAL2    60  DPPC  H14S  7750   0.090000   1.008000
 7751       CTL2    60  DPPC  C215  7751  -0.180000  12.011000
 7752       HAL2    60  DPPC  H15R  7752   0.090000   1.008000
 7753       HAL2    60  DPPC  H15S  7753   0.090000   1.008000
 7754       CTL3    60  DPPC  C216  7754  -0.270000  12.011000
 7755       HAL3    60  DPPC  H16R  7755   0.090000   1.008000
 7756       HAL3    60  DPPC  H16S  7756   0.090000   1.008000
 7757       HAL3    60  DPPC  H16T  7757   0.090000   1.008000
 7758       CTL2    60  DPPC   C33  7758  -0.180000  12.011000
 7759       HAL2    60  DPPC   H3X  7759   0.090000   1.008000
 7760       HAL2    60  DPPC   H3Y  7760   0.090000   1.008000
 7761       CTL2    60  DPPC   C34  7761  -0.180000  12.011000
 7762       HAL2    60  DPPC   H4X  7762   0.090000   1.008000
 7763       HAL2    60  DPPC   H4Y  7763   0.090000   1.008000
 7764       CTL2    60  DPPC   C35  7764  -0.180000  12.011000
 7765       HAL2    60  DPPC   H5X  7765   0.090000   1.008000
 7766       HAL2    60  DPPC   H5Y  7766   0.090000   1.008000
 7767       CTL2    60  DPPC   C36  7767  -0.180000  12.011000
 7768       HAL2    60  DPPC   H6X  7768   0.090000   1.008000
 7769       HAL2    60  DPPC   H6Y  7769   0.090000   1.008000
 7770       CTL2    60  DPPC   C37  7770  -0.180000  12.011000
 7771       HAL2    60  DPPC   H7X  7771   0.090000   1.008000
 7772       HAL2    60  DPPC   H7Y  7772   0.090000   1.008000
 7773       CTL2    60  DPPC   C38  7773  -0.180000  12.011000
 7774       HAL2    60  DPPC   H8X  7774   0.090000   1.008000
 7775       HAL2    60  DPPC   H8Y  7775   0.090000   1.008000
 7776       CTL2    60  DPPC   C39  7776  -0.180000  12.011000
 7777       HAL2    60  DPPC   H9X  7777   0.090000   1.008000
 7778       HAL2    60  DPPC   H9Y  7778   0.090000   1.008000
 7779       CTL2    60  DPPC  C310  7779  -0.180000  12.011000
 7780       HAL2    60  DPPC  H10X  7780   0.090000   1.008000
 7781       HAL2    60  DPPC  H10Y  7781   0.090000   1.008000
 7782       CTL2    60  DPPC  C311  7782  -0.180000  12.011000
 7783       HAL2    60  DPPC  H11X  7783   0.090000   1.008000
 7784       HAL2    60  DPPC  H11Y  7784   0.090000   1.008000
 7785       CTL2    60  DPPC  C312  7785  -0.180000  12.011000
 7786       HAL2    60  DPPC  H12X  7786   0.090000   1.008000
 7787       HAL2    60  DPPC  H12Y  7787   0.090000   1.008000
 7788       CTL2    60  DPPC  C313  7788  -0.180000  12.011000
 7789       HAL2    60  DPPC  H13X  7789   0.090000   1.008000
 7790       HAL2    60  DPPC  H13Y  7790   0.090000   1.008000
 7791       CTL2    60  DPPC  C314  7791  -0.180000  12.011000
 7792       HAL2    60  DPPC  H14X  7792   0.090000   1.008000
 7793       HAL2    60  DPPC  H14Y  7793   0.090000   1.008000
 7794       CTL2    60  DPPC  C315  7794  -0.180000  12.011000
 7795       HAL2    60  DPPC  H15X  7795   0.090000   1.008000
 7796       HAL2    60  DPPC  H15Y  7796   0.090000   1.008000
 7797       CTL3    60  DPPC  C316  7797  -0.270000  12.011000
 7798       HAL3    60  DPPC  H16X  7798   0.090000   1.008000
 7799       HAL3    60  DPPC  H16Y  7799   0.090000   1.008000
 7800       HAL3    60  DPPC  H16Z  7800   0.090000   1.008000
 7801        NTL    61  DPPC     N  7801  -0.600000  14.007000
 7802       CTL5    61  DPPC   C13  7802  -0.350000  12.011000
 7803         HL    61  DPPC  H13A  7803   0.250000   1.008000
 7804         HL    61  DPPC  H13B  7804   0.250000   1.008000
 7805         HL    61  DPPC  H13C  7805   0.250000   1.008000
 7806       CTL5    61  DPPC   C14  7806  -0.350000  12.011000
 7807         HL    61  DPPC  H14A  7807   0.250000   1.008000
 7808         HL    61  DPPC  H14B  7808   0.250000   1.008000
 7809         HL    61  DPPC  H14C  7809   0.250000   1.008000
 7810       CTL5    61  DPPC   C15  7810  -0.350000  12.011000
 7811         HL    61  DPPC  H15A  7811   0.250000   1.008000
 7812         HL    61  DPPC  H15B  7812   0.250000   1.008000
 7813         HL    61  DPPC  H15C  7813   0.250000   1.008000
 7814       CTL2    61  DPPC   C12  7814  -0.100000  12.011000
 7815         HL    61  DPPC  H12A  7815   0.250000   1.008000
 7816         HL    61  DPPC  H12B  7816   0.250000   1.008000
 7817       CTL2    61  DPPC   C11  7817  -0.080000  12.011000
 7818       HAL2    61  DPPC  H11A  7818   0.090000   1.008000
 7819       HAL2    61  DPPC  H11B  7819   0.090000   1.008000
 7820         PL    61  DPPC     P  7820   1.500000  30.974001
 7821        O2L    61  DPPC   O13  7821  -0.780000  15.999400
 7822        O2L    61  DPPC   O14  7822  -0.780000  15.999400
 7823       OSLP    61  DPPC   O11  7823  -0.570000  15.999400
 7824       OSLP    61  DPPC   O12  7824  -0.570000  15.999400
 7825       CTL2    61  DPPC    C1  7825  -0.080000  12.011000
 7826       HAL2    61  DPPC    HA  7826   0.090000   1.008000
 7827       HAL2    61  DPPC    HB  7827   0.090000   1.008000
 7828       CTL1    61  DPPC    C2  7828   0.170000  12.011000
 7829       HAL1    61  DPPC    HS  7829   0.090000   1.008000
 7830        OSL    61  DPPC   O21  7830  -0.490000  15.999400
 7831         CL    61  DPPC   C21  7831   0.900000  12.011000
 7832        OBL    61  DPPC   O22  7832  -0.630000  15.999400
 7833       CTL2    61  DPPC   C22  7833  -0.220000  12.011000
 7834       HAL2    61  DPPC   H2R  7834   0.090000   1.008000
 7835       HAL2    61  DPPC   H2S  7835   0.090000   1.008000
 7836       CTL2    61  DPPC    C3  7836   0.080000  12.011000
 7837       HAL2    61  DPPC    HX  7837   0.090000   1.008000
 7838       HAL2    61  DPPC    HY  7838   0.090000   1.008000
 7839        OSL    61  DPPC   O31  7839  -0.490000  15.999400
 7840         CL    61  DPPC   C31  7840   0.900000  12.011000
 7841        OBL    61  DPPC   O32  7841  -0.630000  15.999400
 7842       CTL2    61  DPPC   C32  7842  -0.220000  12.011000
 7843       HAL2    61  DPPC   H2X  7843   0.090000   1.008000
 7844       HAL2    61  DPPC   H2Y  7844   0.090000   1.008000
 7845       CTL2    61  DPPC   C23  7845  -0.180000  12.011000
 7846       HAL2    61  DPPC   H3R  7846   0.090000   1.008000
 7847       HAL2    61  DPPC   H3S  7847   0.090000   1.008000
 7848       CTL2    61  DPPC   C24  7848  -0.180000  12.011000
 7849       HAL2    61  DPPC   H4R  7849   0.090000   1.008000
 7850       HAL2    61  DPPC   H4S  7850   0.090000   1.008000
 7851       CTL2    61  DPPC   C25  7851  -0.180000  12.011000
 7852       HAL2    61  DPPC   H5R  7852   0.090000   1.008000
 7853       HAL2    61  DPPC   H5S  7853   0.090000   1.008000
 7854       CTL2    61  DPPC   C26  7854  -0.180000  12.011000
 7855       HAL2    61  DPPC   H6R  7855   0.090000   1.008000
 7856       HAL2    61  DPPC   H6S  7856   0.090000   1.008000
 7857       CTL2    61  DPPC   C27  7857  -0.180000  12.011000
 7858       HAL2    61  DPPC   H7R  7858   0.090000   1.008000
 7859       HAL2    61  DPPC   H7S  7859   0.090000   1.008000
 7860       CTL2    61  DPPC   C28  7860  -0.180000  12.011000
 7861       HAL2    61  DPPC   H8R  7861   0.090000   1.008000
 7862       HAL2    61  DPPC   H8S  7862   0.090000   1.008000
 7863       CTL2    61  DPPC   C29  7863  -0.180000  12.011000
 7864       HAL2    61  DPPC   H9R  7864   0.090000   1.008000
 7865       HAL2    61  DPPC   H9S  7865   0.090000   1.008000
 7866       CTL2    61  DPPC  C210  7866  -0.180000  12.011000
 7867       HAL2    61  DPPC  H10R  7867   0.090000   1.008000
 7868       HAL2    61  DPPC  H10S  7868   0.090000   1.008000
 7869       CTL2    61  DPPC  C211  7869  -0.180000  12.011000
 7870       HAL2    61  DPPC  H11R  7870   0.090000   1.008000
 7871       HAL2    61  DPPC  H11S  7871   0.090000   1.008000
 7872       CTL2    61  DPPC  C212  7872  -0.180000  12.011000
 7873       HAL2    61  DPPC  H12R  7873   0.090000   1.008000
 7874       HAL2    61  DPPC  H12S  7874   0.090000   1.008000
 7875       CTL2    61  DPPC  C213  7875  -0.180000  12.011000
 7876       HAL2    61  DPPC  H13R  7876   0.090000   1.008000
 7877       HAL2    61  DPPC  H13S  7877   0.090000   1.008000
 7878       CTL2    61  DPPC  C214  7878  -0.180000  12.011000
 7879       HAL2    61  DPPC  H14R  7879   0.090000   1.008000
 7880       HAL2    61  DPPC  H14S  7880   0.090000   1.008000
 7881       CTL2    61  DPPC  C215  7881  -0.180000  12.011000
 7882       HAL2    61  DPPC  H15R  7882   0.090000   1.008000
 7883       HAL2    61  DPPC  H15S  7883   0.090000   1.008000
 7884       CTL3    61  DPPC  C216  7884  -0.270000  12.011000
 7885       HAL3    61  DPPC  H16R  7885   0.090000   1.008000
 7886       HAL3    61  DPPC  H16S  7886   0.090000   1.008000
 7887       HAL3    61  DPPC  H16T  7887   0.090000   1.008000
 7888       CTL2    61  DPPC   C33  7888  -0.180000  12.011000
 7889       HAL2    61  DPPC   H3X  7889   0.090000   1.008000
 7890       HAL2    61  DPPC   H3Y  7890   0.090000   1.008000
 7891       CTL2    61  DPPC   C34  7891  -0.180000  12.011000
 7892       HAL2    61  DPPC   H4X  7892   0.090000   1.008000
 7893       HAL2    61  DPPC   H4Y  7893   0.090000   1.008000
 7894       CTL2    61  DPPC   C35  7894  -0.180000  12.011000
 7895       HAL2    61  DPPC   H5X  7895   0.090000   1.008000
 7896       HAL2    61  DPPC   H5Y  7896   0.090000   1.008000
 7897       CTL2    61  DPPC   C36  7897  -0.180000  12.011000
 7898       HAL2    61  DPPC   H6X  7898   0.090000   1.008000
 7899       HAL2    61  DPPC   H6Y  7899   0.090000   1.008000
 7900       CTL2    61  DPPC   C37  7900  -0.180000  12.011000
 7901       HAL2    61  DPPC   H7X  7901   0.090000   1.008000
 7902       HAL2    61  DPPC   H7Y  7902   0.090000   1.008000
 7903       CTL2    61  DPPC   C38  7903  -0.180000  12.011000
 7904       HAL2    61  DPPC   H8X  7904   0.090000   1.008000
 7905       HAL2    61  DPPC   H8Y  7905   0.090000   1.008000
 7906       CTL2    61  DPPC   C39  7906  -0.180000  12.011000
 7907       HAL2    61  DPPC   H9X  7907   0.090000   1.008000
 7908       HAL2    61  DPPC   H9Y  7908   0.090000   1.008000
 7909       CTL2    61  DPPC  C310  7909  -0.180000  12.011000
 7910       HAL2    61  DPPC  H10X  7910   0.090000   1.008000
 7911       HAL2    61  DPPC  H10Y  7911   0.090000   1.008000
 7912       CTL2    61  DPPC  C311  7912  -0.180000  12.011000
 7913       HAL2    61  DPPC  H11X  7913   0.090000   1.008000
 7914       HAL2    61  DPPC  H11Y  7914   0.090000   1.008000
 7915       CTL2    61  DPPC  C312  7915  -0.180000  12.011000
 7916       HAL2    61  DPPC  H12X  7916   0.090000   1.008000
 7917       HAL2    61  DPPC  H12Y  7917   0.090000   1.008000
 7918       CTL2    61  DPPC  C313  7918  -0.180000  12.011000
 7919       HAL2    61  DPPC  H13X  7919   0.090000   1.008000
 7920       HAL2    61  DPPC  H13Y  7920   0.090000   1.008000
 7921       CTL2    61  DPPC  C314  7921  -0.180000  12.011000
 7922       HAL2    61  DPPC  H14X  7922   0.090000   1.008000
 7923       HAL2    61  DPPC  H14Y  7923   0.090000   1.008000
 7924       CTL2    61  DPPC  C315  7924  -0.180000  12.011000
 7925       HAL2    61  DPPC  H15X  7925   0.090000   1.008000
 7926       HAL2    61  DPPC  H15Y  7926   0.090000   1.008000
 7927       CTL3    61  DPPC  C316  7927  -0.270000  12.011000
 7928       HAL3    61  DPPC  H16X  7928   0.090000   1.008000
 7929       HAL3    61  DPPC  H16Y  7929   0.090000   1.008000
 7930       HAL3    61  DPPC  H16Z  7930   0.090000   1.008000
 7931        NTL    62  DPPC     N  7931  -0.600000  14.007000
 7932       CTL5    62  DPPC   C13  7932  -0.350000  12.011000
 7933         HL    62  DPPC  H13A  7933   0.250000   1.008000
 7934         HL    62  DPPC  H13B  7934   0.250000   1.008000
 7935         HL    62  DPPC  H13C  7935   0.250000   1.008000
 7936       CTL5    62  DPPC   C14  7936  -0.350000  12.011000
 7937         HL    62  DPPC  H14A  7937   0.250000   1.008000
 7938         HL    62  DPPC  H14B  7938   0.250000   1.008000
 7939         HL    62  DPPC  H14C  7939   0.250000   1.008000
 7940       CTL5    62  DPPC   C15  7940  -0.350000  12.011000
 7941         HL    62  DPPC  H15A  7941   0.250000   1.008000
 7942         HL    62  DPPC  H15B  7942   0.250000   1.008000
 7943         HL    62  DPPC  H15C  7943   0.250000   1.008000
 7944       CTL2    62  DPPC   C12  7944  -0.100000  12.011000
 7945         HL    62  DPPC  H12A  7945   0.250000   1.008000
 7946         HL    62  DPPC  H12B  7946   0.250000   1.008000
 7947       CTL2    62  DPPC   C11  7947  -0.080000  12.011000
 7948       HAL2    62  DPPC  H11A  7948   0.090000   1.008000
 7949       HAL2    62  DPPC  H11B  7949   0.090000   1.008000
 7950         PL    62  DPPC     P  7950   1.500000  30.974001
 7951        O2L    62  DPPC   O13  7951  -0.780000  15.999400
 7952        O2L    62  DPPC   O14  7952  -0.780000  15.999400
 7953       OSLP    62  DPPC   O11  7953  -0.570000  15.999400
 7954       OSLP    62  DPPC   O12  7954  -0.570000  15.999400
 7955       CTL2    62  DPPC    C1  7955  -0.080000  12.011000
 7956       HAL2    62  DPPC    HA  7956   0.090000   1.008000
 7957       HAL2    62  DPPC    HB  7957   0.090000   1.008000
 7958       CTL1    62  DPPC    C2  7958   0.170000  12.011000
 7959       HAL1    62  DPPC    HS  7959   0.090000   1.008000
 7960        OSL    62  DPPC   O21  7960  -0.490000  15.999400
 7961         CL    62  DPPC   C21  7961   0.900000  12.011000
 7962        OBL    62  DPPC   O22  7962  -0.630000  15.999400
 7963       CTL2    62  DPPC   C22  7963  -0.220000  12.011000
 7964       HAL2    62  DPPC   H2R  7964   0.090000   1.008000
 7965       HAL2    62  DPPC   H2S  7965   0.090000   1.008000
 7966       CTL2    62  DPPC    C3  7966   0.080000  12.011000
 7967       HAL2    62  DPPC    HX  7967   0.090000   1.008000
 7968       HAL2    62  DPPC    HY  7968   0.090000   1.008000
 7969        OSL    62  DPPC   O31  7969  -0.490000  15.999400
 7970         CL    62  DPPC   C31  7970   0.900000  12.011000
 7971        OBL    62  DPPC   O32  7971  -0.630000  15.999400
 7972       CTL2    62  DPPC   C32  7972  -0.220000  12.011000
 7973       HAL2    62  DPPC   H2X  7973   0.090000   1.008000
 7974       HAL2    62  DPPC   H2Y  7974   0.090000   1.008000
 7975       CTL2    62  DPPC   C23  7975  -0.180000  12.011000
 7976       HAL2    62  DPPC   H3R  7976   0.090000   1.008000
 7977       HAL2    62  DPPC   H3S  7977   0.090000   1.008000
 7978       CTL2    62  DPPC   C24  7978  -0.180000  12.011000
 7979       HAL2    62  DPPC   H4R  7979   0.090000   1.008000
 7980       HAL2    62  DPPC   H4S  7980   0.090000   1.008000
 7981       CTL2    62  DPPC   C25  7981  -0.180000  12.011000
 7982       HAL2    62  DPPC   H5R  7982   0.090000   1.008000
 7983       HAL2    62  DPPC   H5S  7983   0.090000   1.008000
 7984       CTL2    62  DPPC   C26  7984  -0.180000  12.011000
 7985       HAL2    62  DPPC   H6R  7985   0.090000   1.008000
 7986       HAL2    62  DPPC   H6S  7986   0.090000   1.008000
 7987       CTL2    62  DPPC   C27  7987  -0.180000  12.011000
 7988       HAL2    62  DPPC   H7R  7988   0.090000   1.008000
 7989       HAL2    62  DPPC   H7S  7989   0.090000   1.008000
 7990       CTL2    62  DPPC   C28  7990  -0.180000  12.011000
 7991       HAL2    62  DPPC   H8R  7991   0.090000   1.008000
 7992       HAL2    62  DPPC   H8S  7992   0.090000   1.008000
 7993       CTL2    62  DPPC   C29  7993  -0.180000  12.011000
 7994       HAL2    62  DPPC   H9R  7994   0.090000   1.008000
 7995       HAL2    62  DPPC   H9S  7995   0.090000   1.008000
 7996       CTL2    62  DPPC  C210  7996  -0.180000  12.011000
 7997       HAL2    62  DPPC  H10R  7997   0.090000   1.008000
 7998       HAL2    62  DPPC  H10S  7998   0.090000   1.008000
 7999       CTL2    62  DPPC  C211  7999  -0.180000  12.011000
 8000       HAL2    62  DPPC  H11R  8000   0.090000   1.008000
 8001       HAL2    62  DPPC  H11S  8001   0.090000   1.008000
 8002       CTL2    62  DPPC  C212  8002  -0.180000  12.011000
 8003       HAL2    62  DPPC  H12R  8003   0.090000   1.008000
 8004       HAL2    62  DPPC  H12S  8004   0.090000   1.008000
 8005       CTL2    62  DPPC  C213  8005  -0.180000  12.011000
 8006       HAL2    62  DPPC  H13R  8006   0.090000   1.008000
 8007       HAL2    62  DPPC  H13S  8007   0.090000   1.008000
 8008       CTL2    62  DPPC  C214  8008  -0.180000  12.011000
 8009       HAL2    62  DPPC  H14R  8009   0.090000   1.008000
 8010       HAL2    62  DPPC  H14S  8010   0.090000   1.008000
 8011       CTL2    62  DPPC  C215  8011  -0.180000  12.011000
 8012       HAL2    62  DPPC  H15R  8012   0.090000   1.008000
 8013       HAL2    62  DPPC  H15S  8013   0.090000   1.008000
 8014       CTL3    62  DPPC  C216  8014  -0.270000  12.011000
 8015       HAL3    62  DPPC  H16R  8015   0.090000   1.008000
 8016       HAL3    62  DPPC  H16S  8016   0.090000   1.008000
 8017       HAL3    62  DPPC  H16T  8017   0.090000   1.008000
 8018       CTL2    62  DPPC   C33  8018  -0.180000  12.011000
 8019       HAL2    62  DPPC   H3X  8019   0.090000   1.008000
 8020       HAL2    62  DPPC   H3Y  8020   0.090000   1.008000
 8021       CTL2    62  DPPC   C34  8021  -0.180000  12.011000
 8022       HAL2    62  DPPC   H4X  8022   0.090000   1.008000
 8023       HAL2    62  DPPC   H4Y  8023   0.090000   1.008000
 8024       CTL2    62  DPPC   C35  8024  -0.180000  12.011000
 8025       HAL2    62  DPPC   H5X  8025   0.090000   1.008000
 8026       HAL2    62  DPPC   H5Y  8026   0.090000   1.008000
 8027       CTL2    62  DPPC   C36  8027  -0.180000  12.011000
 8028       HAL2    62  DPPC   H6X  8028   0.090000   1.008000
 8029       HAL2    62  DPPC   H6Y  8029   0.090000   1.008000
 8030       CTL2    62  DPPC   C37  8030  -0.180000  12.011000
 8031       HAL2    62  DPPC   H7X  8031   0.090000   1.008000
 8032       HAL2    62  DPPC   H7Y  8032   0.090000   1.008000
 8033       CTL2    62  DPPC   C38  8033  -0.180000  12.011000
 8034       HAL2    62  DPPC   H8X  8034   0.090000   1.008000
 8035       HAL2    62  DPPC   H8Y  8035   0.090000   1.008000
 8036       CTL2    62  DPPC   C39  8036  -0.180000  12.011000
 8037       HAL2    62  DPPC   H9X  8037   0.090000   1.008000
 8038       HAL2    62  DPPC   H9Y  8038   0.090000   1.008000
 8039       CTL2    62  DPPC  C310  8039  -0.180000  12.011000
 8040       HAL2    62  DPPC  H10X  8040   0.090000   1.008000
 8041       HAL2    62  DPPC  H10Y  8041   0.090000   1.008000
 8042       CTL2    62  DPPC  C311  8042  -0.180000  12.011000
 8043       HAL2    62  DPPC  H11X  8043   0.090000   1.008000
 8044       HAL2    62  DPPC  H11Y  8044   0.090000   1.008000
 8045       CTL2    62  DPPC  C312  8045  -0.180000  12.011000
 8046       HAL2    62  DPPC  H12X  8046   0.090000   1.008000
 8047       HAL2    62  DPPC  H12Y  8047   0.090000   1.008000
 8048       CTL2    62  DPPC  C313  8048  -0.180000  12.011000
 8049       HAL2    62  DPPC  H13X  8049   0.090000   1.008000
 8050       HAL2    62  DPPC  H13Y  8050   0.090000   1.008000
 8051       CTL2    62  DPPC  C314  8051  -0.180000  12.011000
 8052       HAL2    62  DPPC  H14X  8052   0.090000   1.008000
 8053       HAL2    62  DPPC  H14Y  8053   0.090000   1.008000
 8054       CTL2    62  DPPC  C315  8054  -0.180000  12.011000
 8055       HAL2    62  DPPC  H15X  8055   0.090000   1.008000
 8056       HAL2    62  DPPC  H15Y  8056   0.090000   1.008000
 8057       CTL3    62  DPPC  C316  8057  -0.270000  12.011000
 8058       HAL3    62  DPPC  H16X  8058   0.090000   1.008000
 8059       HAL3    62  DPPC  H16Y  8059   0.090000   1.008000
 8060       HAL3    62  DPPC  H16Z  8060   0.090000   1.008000
 8061        NTL    63  DPPC     N  8061  -0.600000  14.007000
 8062       CTL5    63  DPPC   C13  8062  -0.350000  12.011000
 8063         HL    63  DPPC  H13A  8063   0.250000   1.008000
 8064         HL    63  DPPC  H13B  8064   0.250000   1.008000
 8065         HL    63  DPPC  H13C  8065   0.250000   1.008000
 8066       CTL5    63  DPPC   C14  8066  -0.350000  12.011000
 8067         HL    63  DPPC  H14A  8067   0.250000   1.008000
 8068         HL    63  DPPC  H14B  8068   0.250000   1.008000
 8069         HL    63  DPPC  H14C  8069   0.250000   1.008000
 8070       CTL5    63  DPPC   C15  8070  -0.350000  12.011000
 8071         HL    63  DPPC  H15A  8071   0.250000   1.008000
 8072         HL    63  DPPC  H15B  8072   0.250000   1.008000
 8073         HL    63  DPPC  H15C  8073   0.250000   1.008000
 8074       CTL2    63  DPPC   C12  8074  -0.100000  12.011000
 8075         HL    63  DPPC  H12A  8075   0.250000   1.008000
 8076         HL    63  DPPC  H12B  8076   0.250000   1.008000
 8077       CTL2    63  DPPC   C11  8077  -0.080000  12.011000
 8078       HAL2    63  DPPC  H11A  8078   0.090000   1.008000
 8079       HAL2    63  DPPC  H11B  8079   0.090000   1.008000
 8080         PL    63  DPPC     P  8080   1.500000  30.974001
 8081        O2L    63  DPPC   O13  8081  -0.780000  15.999400
 8082        O2L    63  DPPC   O14  8082  -0.780000  15.999400
 8083       OSLP    63  DPPC   O11  8083  -0.570000  15.999400
 8084       OSLP    63  DPPC   O12  8084  -0.570000  15.999400
 8085       CTL2    63  DPPC    C1  8085  -0.080000  12.011000
 8086       HAL2    63  DPPC    HA  8086   0.090000   1.008000
 8087       HAL2    63  DPPC    HB  8087   0.090000   1.008000
 8088       CTL1    63  DPPC    C2  8088   0.170000  12.011000
 8089       HAL1    63  DPPC    HS  8089   0.090000   1.008000
 8090        OSL    63  DPPC   O21  8090  -0.490000  15.999400
 8091         CL    63  DPPC   C21  8091   0.900000  12.011000
 8092        OBL    63  DPPC   O22  8092  -0.630000  15.999400
 8093       CTL2    63  DPPC   C22  8093  -0.220000  12.011000
 8094       HAL2    63  DPPC   H2R  8094   0.090000   1.008000
 8095       HAL2    63  DPPC   H2S  8095   0.090000   1.008000
 8096       CTL2    63  DPPC    C3  8096   0.080000  12.011000
 8097       HAL2    63  DPPC    HX  8097   0.090000   1.008000
 8098       HAL2    63  DPPC    HY  8098   0.090000   1.008000
 8099        OSL    63  DPPC   O31  8099  -0.490000  15.999400
 8100         CL    63  DPPC   C31  8100   0.900000  12.011000
 8101        OBL    63  DPPC   O32  8101  -0.630000  15.999400
 8102       CTL2    63  DPPC   C32  8102  -0.220000  12.011000
 8103       HAL2    63  DPPC   H2X  8103   0.090000   1.008000
 8104       HAL2    63  DPPC   H2Y  8104   0.090000   1.008000
 8105       CTL2    63  DPPC   C23  8105  -0.180000  12.011000
 8106       HAL2    63  DPPC   H3R  8106   0.090000   1.008000
 8107       HAL2    63  DPPC   H3S  8107   0.090000   1.008000
 8108       CTL2    63  DPPC   C24  8108  -0.180000  12.011000
 8109       HAL2    63  DPPC   H4R  8109   0.090000   1.008000
 8110       HAL2    63  DPPC   H4S  8110   0.090000   1.008000
 8111       CTL2    63  DPPC   C25  8111  -0.180000  12.011000
 8112       HAL2    63  DPPC   H5R  8112   0.090000   1.008000
 8113       HAL2    63  DPPC   H5S  8113   0.090000   1.008000
 8114       CTL2    63  DPPC   C26  8114  -0.180000  12.011000
 8115       HAL2    63  DPPC   H6R  8115   0.090000   1.008000
 8116       HAL2    63  DPPC   H6S  8116   0.090000   1.008000
 8117       CTL2    63  DPPC   C27  8117  -0.180000  12.011000
 8118       HAL2    63  DPPC   H7R  8118   0.090000   1.008000
 8119       HAL2    63  DPPC   H7S  8119   0.090000   1.008000
 8120       CTL2    63  DPPC   C28  8120  -0.180000  12.011000
 8121       HAL2    63  DPPC   H8R  8121   0.090000   1.008000
 8122       HAL2    63  DPPC   H8S  8122   0.090000   1.008000
 8123       CTL2    63  DPPC   C29  8123  -0.180000  12.011000
 8124       HAL2    63  DPPC   H9R  8124   0.090000   1.008000
 8125       HAL2    63  DPPC   H9S  8125   0.090000   1.008000
 8126       CTL2    63  DPPC  C210  8126  -0.180000  12.011000
 8127       HAL2    63  DPPC  H10R  8127   0.090000   1.008000
 8128       HAL2    63  DPPC  H10S  8128   0.090000   1.008000
 8129       CTL2    63  DPPC  C211  8129  -0.180000  12.011000
 8130       HAL2    63  DPPC  H11R  8130   0.090000   1.008000
 8131       HAL2    63  DPPC  H11S  8131   0.090000   1.008000
 8132       CTL2    63  DPPC  C212  8132  -0.180000  12.011000
 8133       HAL2    63  DPPC  H12R  8133   0.090000   1.008000
 8134       HAL2    63  DPPC  H12S  8134   0.090000   1.008000
 8135       CTL2    63  DPPC  C213  8135  -0.180000  12.011000
 8136       HAL2    63  DPPC  H13R  8136   0.090000   1.008000
 8137       HAL2    63  DPPC  H13S  8137   0.090000   1.008000
 8138       CTL2    63  DPPC  C214  8138  -0.180000  12.011000
 8139       HAL2    63  DPPC  H14R  8139   0.090000   1.008000
 8140       HAL2    63  DPPC  H14S  8140   0.090000   1.008000
 8141       CTL2    63  DPPC  C215  8141  -0.180000  12.011000
 8142       HAL2    63  DPPC  H15R  8142   0.090000   1.008000
 8143       HAL2    63  DPPC  H15S  8143   0.090000   1.008000
 8144       CTL3    63  DPPC  C216  8144  -0.270000  12.011000
 8145       HAL3    63  DPPC  H16R  8145   0.090000   1.008000
 8146       HAL3    63  DPPC  H16S  8146   0.090000   1.008000
 8147       HAL3    63  DPPC  H16T  8147   0.090000   1.008000
 8148       CTL2    63  DPPC   C33  8148  -0.180000  12.011000
 8149       HAL2    63  DPPC   H3X  8149   0.090000   1.008000
 8150       HAL2    63  DPPC   H3Y  8150   0.090000   1.008000
 8151       CTL2    63  DPPC   C34  8151  -0.180000  12.011000
 8152       HAL2    63  DPPC   H4X  8152   0.090000   1.008000
 8153       HAL2    63  DPPC   H4Y  8153   0.090000   1.008000
 8154       CTL2    63  DPPC   C35  8154  -0.180000  12.011000
 8155       HAL2    63  DPPC   H5X  8155   0.090000   1.008000
 8156       HAL2    63  DPPC   H5Y  8156   0.090000   1.008000
 8157       CTL2    63  DPPC   C36  8157  -0.180000  12.011000
 8158       HAL2    63  DPPC   H6X  8158   0.090000   1.008000
 8159       HAL2    63  DPPC   H6Y  8159   0.090000   1.008000
 8160       CTL2    63  DPPC   C37  8160  -0.180000  12.011000
 8161       HAL2    63  DPPC   H7X  8161   0.090000   1.008000
 8162       HAL2    63  DPPC   H7Y  8162   0.090000   1.008000
 8163       CTL2    63  DPPC   C38  8163  -0.180000  12.011000
 8164       HAL2    63  DPPC   H8X  8164   0.090000   1.008000
 8165       HAL2    63  DPPC   H8Y  8165   0.090000   1.008000
 8166       CTL2    63  DPPC   C39  8166  -0.180000  12.011000
 8167       HAL2    63  DPPC   H9X  8167   0.090000   1.008000
 8168       HAL2    63  DPPC   H9Y  8168   0.090000   1.008000
 8169       CTL2    63  DPPC  C310  8169  -0.180000  12.011000
 8170       HAL2    63  DPPC  H10X  8170   0.090000   1.008000
 8171       HAL2    63  DPPC  H10Y  8171   0.090000   1.008000
 8172       CTL2    63  DPPC  C311  8172  -0.180000  12.011000
 8173       HAL2    63  DPPC  H11X  8173   0.090000   1.008000
 8174       HAL2    63  DPPC  H11Y  8174   0.090000   1.008000
 8175       CTL2    63  DPPC  C312  8175  -0.180000  12.011000
 8176       HAL2    63  DPPC  H12X  8176   0.090000   1.008000
 8177       HAL2    63  DPPC  H12Y  8177   0.090000   1.008000
 8178       CTL2    63  DPPC  C313  8178  -0.180000  12.011000
 8179       HAL2    63  DPPC  H13X  8179   0.090000   1.008000
 8180       HAL2    63  DPPC  H13Y  8180   0.090000   1.008000
 8181       CTL2    63  DPPC  C314  8181  -0.180000  12.011000
 8182       HAL2    63  DPPC  H14X  8182   0.090000   1.008000
 8183       HAL2    63  DPPC  H14Y  8183   0.090000   1.008000
 8184       CTL2    63  DPPC  C315  8184  -0.180000  12.011000
 8185       HAL2    63  DPPC  H15X  8185   0.090000   1.008000
 8186       HAL2    63  DPPC  H15Y  8186   0.090000   1.008000
 8187       CTL3    63  DPPC  C316  8187  -0.270000  12.011000
 8188       HAL3    63  DPPC  H16X  8188   0.090000   1.008000
 8189       HAL3    63  DPPC  H16Y  8189   0.090000   1.008000
 8190       HAL3    63  DPPC  H16Z  8190   0.090000   1.008000
 8191        NTL    64  DPPC     N  8191  -0.600000  14.007000
 8192       CTL5    64  DPPC   C13  8192  -0.350000  12.011000
 8193         HL    64  DPPC  H13A  8193   0.250000   1.008000
 8194         HL    64  DPPC  H13B  8194   0.250000   1.008000
 8195         HL    64  DPPC  H13C  8195   0.250000   1.008000
 8196       CTL5    64  DPPC   C14  8196  -0.350000  12.011000
 8197         HL    64  DPPC  H14A  8197   0.250000   1.008000
 8198         HL    64  DPPC  H14B  8198   0.250000   1.008000
 8199         HL    64  DPPC  H14C  8199   0.250000   1.008000
 8200       CTL5    64  DPPC   C15  8200  -0.350000  12.011000
 8201         HL    64  DPPC  H15A  8201   0.250000   1.008000
 8202         HL    64  DPPC  H15B  8202   0.250000   1.008000
 8203         HL    64  DPPC  H15C  8203   0.250000   1.008000
 8204       CTL2    64  DPPC   C12  8204  -0.100000  12.011000
 8205         HL    64  DPPC  H12A  8205   0.250000   1.008000
 8206         HL    64  DPPC  H12B  8206   0.250000   1.008000
 8207       CTL2    64  DPPC   C11  8207  -0.080000  12.011000
 8208       HAL2    64  DPPC  H11A  8208   0.090000   1.008000
 8209       HAL2    64  DPPC  H11B  8209   0.090000   1.008000
 8210         PL    64  DPPC     P  8210   1.500000  30.974001
 8211        O2L    64  DPPC   O13  8211  -0.780000  15.999400
 8212        O2L    64  DPPC   O14  8212  -0.780000  15.999400
 8213       OSLP    64  DPPC   O11  8213  -0.570000  15.999400
 8214       OSLP    64  DPPC   O12  8214  -0.570000  15.999400
 8215       CTL2    64  DPPC    C1  8215  -0.080000  12.011000
 8216       HAL2    64  DPPC    HA  8216   0.090000   1.008000
 8217       HAL2    64  DPPC    HB  8217   0.090000   1.008000
 8218       CTL1    64  DPPC    C2  8218   0.170000  12.011000
 8219       HAL1    64  DPPC    HS  8219   0.090000   1.008000
 8220        OSL    64  DPPC   O21  8220  -0.490000  15.999400
 8221         CL    64  DPPC   C21  8221   0.900000  12.011000
 8222        OBL    64  DPPC   O22  8222  -0.630000  15.999400
 8223       CTL2    64  DPPC   C22  8223  -0.220000  12.011000
 8224       HAL2    64  DPPC   H2R  8224   0.090000   1.008000
 8225       HAL2    64  DPPC   H2S  8225   0.090000   1.008000
 8226       CTL2    64  DPPC    C3  8226   0.080000  12.011000
 8227       HAL2    64  DPPC    HX  8227   0.090000   1.008000
 8228       HAL2    64  DPPC    HY  8228   0.090000   1.008000
 8229        OSL    64  DPPC   O31  8229  -0.490000  15.999400
 8230         CL    64  DPPC   C31  8230   0.900000  12.011000
 8231        OBL    64  DPPC   O32  8231  -0.630000  15.999400
 8232       CTL2    64  DPPC   C32  8232  -0.220000  12.011000
 8233       HAL2    64  DPPC   H2X  8233   0.090000   1.008000
 8234       HAL2    64  DPPC   H2Y  8234   0.090000   1.008000
 8235       CTL2    64  DPPC   C23  8235  -0.180000  12.011000
 8236       HAL2    64  DPPC   H3R  8236   0.090000   1.008000
 8237       HAL2    64  DPPC   H3S  8237   0.090000   1.008000
 8238       CTL2    64  DPPC   C24  8238  -0.180000  12.011000
 8239       HAL2    64  DPPC   H4R  8239   0.090000   1.008000
 8240       HAL2    64  DPPC   H4S  8240   0.090000   1.008000
 8241       CTL2    64  DPPC   C25  8241  -0.180000  12.011000
 8242       HAL2    64  DPPC   H5R  8242   0.090000   1.008000
 8243       HAL2    64  DPPC   H5S  8243   0.090000   1.008000
 8244       CTL2    64  DPPC   C26  8244  -0.180000  12.011000
 8245       HAL2    64  DPPC   H6R  8245   0.090000   1.008000
 8246       HAL2    64  DPPC   H6S  8246   0.090000   1.008000
 8247       CTL2    64  DPPC   C27  8247  -0.180000  12.011000
 8248       HAL2    64  DPPC   H7R  8248   0.090000   1.008000
 8249       HAL2    64  DPPC   H7S  8249   0.090000   1.008000
 8250       CTL2    64  DPPC   C28  8250  -0.180000  12.011000
 8251       HAL2    64  DPPC   H8R  8251   0.090000   1.008000
 8252       HAL2    64  DPPC   H8S  8252   0.090000   1.008000
 8253       CTL2    64  DPPC   C29  8253  -0.180000  12.011000
 8254       HAL2    64  DPPC   H9R  8254   0.090000   1.008000
 8255       HAL2    64  DPPC   H9S  8255   0.090000   1.008000
 8256       CTL2    64  DPPC  C210  8256  -0.180000  12.011000
 8257       HAL2    64  DPPC  H10R  8257   0.090000   1.008000
 8258       HAL2    64  DPPC  H10S  8258   0.090000   1.008000
 8259       CTL2    64  DPPC  C211  8259  -0.180000  12.011000
 8260       HAL2    64  DPPC  H11R  8260   0.090000   1.008000
 8261       HAL2    64  DPPC  H11S  8261   0.090000   1.008000
 8262       CTL2    64  DPPC  C212  8262  -0.180000  12.011000
 8263       HAL2    64  DPPC  H12R  8263   0.090000   1.008000
 8264       HAL2    64  DPPC  H12S  8264   0.090000   1.008000
 8265       CTL2    64  DPPC  C213  8265  -0.180000  12.011000
 8266       HAL2    64  DPPC  H13R  8266   0.090000   1.008000
 8267       HAL2    64  DPPC  H13S  8267   0.090000   1.008000
 8268       CTL2    64  DPPC  C214  8268  -0.180000  12.011000
 8269       HAL2    64  DPPC  H14R  8269   0.090000   1.008000
 8270       HAL2    64  DPPC  H14S  8270   0.090000   1.008000
 8271       CTL2    64  DPPC  C215  8271  -0.180000  12.011000
 8272       HAL2    64  DPPC  H15R  8272   0.090000   1.008000
 8273       HAL2    64  DPPC  H15S  8273   0.090000   1.008000
 8274       CTL3    64  DPPC  C216  8274  -0.270000  12.011000
 8275       HAL3    64  DPPC  H16R  8275   0.090000   1.008000
 8276       HAL3    64  DPPC  H16S  8276   0.090000   1.008000
 8277       HAL3    64  DPPC  H16T  8277   0.090000   1.008000
 8278       CTL2    64  DPPC   C33  8278  -0.180000  12.011000
 8279       HAL2    64  DPPC   H3X  8279   0.090000   1.008000
 8280       HAL2    64  DPPC   H3Y  8280   0.090000   1.008000
 8281       CTL2    64  DPPC   C34  8281  -0.180000  12.011000
 8282       HAL2    64  DPPC   H4X  8282   0.090000   1.008000
 8283       HAL2    64  DPPC   H4Y  8283   0.090000   1.008000
 8284       CTL2    64  DPPC   C35  8284  -0.180000  12.011000
 8285       HAL2    64  DPPC   H5X  8285   0.090000   1.008000
 8286       HAL2    64  DPPC   H5Y  8286   0.090000   1.008000
 8287       CTL2    64  DPPC   C36  8287  -0.180000  12.011000
 8288       HAL2    64  DPPC   H6X  8288   0.090000   1.008000
 8289       HAL2    64  DPPC   H6Y  8289   0.090000   1.008000
 8290       CTL2    64  DPPC   C37  8290  -0.180000  12.011000
 8291       HAL2    64  DPPC   H7X  8291   0.090000   1.008000
 8292       HAL2    64  DPPC   H7Y  8292   0.090000   1.008000
 8293       CTL2    64  DPPC   C38  8293  -0.180000  12.011000
 8294       HAL2    64  DPPC   H8X  8294   0.090000   1.008000
 8295       HAL2    64  DPPC   H8Y  8295   0.090000   1.008000
 8296       CTL2    64  DPPC   C39  8296  -0.180000  12.011000
 8297       HAL2    64  DPPC   H9X  8297   0.090000   1.008000
 8298       HAL2    64  DPPC   H9Y  8298   0.090000   1.008000
 8299       CTL2    64  DPPC  C310  8299  -0.180000  12.011000
 8300       HAL2    64  DPPC  H10X  8300   0.090000   1.008000
 8301       HAL2    64  DPPC  H10Y  8301   0.090000   1.008000
 8302       CTL2    64  DPPC  C311  8302  -0.180000  12.011000
 8303       HAL2    64  DPPC  H11X  8303   0.090000   1.008000
 8304       HAL2    64  DPPC  H11Y  8304   0.090000   1.008000
 8305       CTL2    64  DPPC  C312  8305  -0.180000  12.011000
 8306       HAL2    64  DPPC  H12X  8306   0.090000   1.008000
 8307       HAL2    64  DPPC  H12Y  8307   0.090000   1.008000
 8308       CTL2    64  DPPC  C313  8308  -0.180000  12.011000
 8309       HAL2    64  DPPC  H13X  8309   0.090000   1.008000
 8310       HAL2    64  DPPC  H13Y  8310   0.090000   1.008000
 8311       CTL2    64  DPPC  C314  8311  -0.180000  12.011000
 8312       HAL2    64  DPPC  H14X  8312   0.090000   1.008000
 8313       HAL2    64  DPPC  H14Y  8313   0.090000   1.008000
 8314       CTL2    64  DPPC  C315  8314  -0.180000  12.011000
 8315       HAL2    64  DPPC  H15X  8315   0.090000   1.008000
 8316       HAL2    64  DPPC  H15Y  8316   0.090000   1.008000
 8317       CTL3    64  DPPC  C316  8317  -0.270000  12.011000
 8318       HAL3    64  DPPC  H16X  8318   0.090000   1.008000
 8319       HAL3    64  DPPC  H16Y  8319   0.090000   1.008000
 8320       HAL3    64  DPPC  H16Z  8320   0.090000   1.008000
 8321        NTL    65  DPPC     N  8321  -0.600000  14.007000
 8322       CTL5    65  DPPC   C13  8322  -0.350000  12.011000
 8323         HL    65  DPPC  H13A  8323   0.250000   1.008000
 8324         HL    65  DPPC  H13B  8324   0.250000   1.008000
 8325         HL    65  DPPC  H13C  8325   0.250000   1.008000
 8326       CTL5    65  DPPC   C14  8326  -0.350000  12.011000
 8327         HL    65  DPPC  H14A  8327   0.250000   1.008000
 8328         HL    65  DPPC  H14B  8328   0.250000   1.008000
 8329         HL    65  DPPC  H14C  8329   0.250000   1.008000
 8330       CTL5    65  DPPC   C15  8330  -0.350000  12.011000
 8331         HL    65  DPPC  H15A  8331   0.250000   1.008000
 8332         HL    65  DPPC  H15B  8332   0.250000   1.008000
 8333         HL    65  DPPC  H15C  8333   0.250000   1.008000
 8334       CTL2    65  DPPC   C12  8334  -0.100000  12.011000
 8335         HL    65  DPPC  H12A  8335   0.250000   1.008000
 8336         HL    65  DPPC  H12B  8336   0.250000   1.008000
 8337       CTL2    65  DPPC   C11  8337  -0.080000  12.011000
 8338       HAL2    65  DPPC  H11A  8338   0.090000   1.008000
 8339       HAL2    65  DPPC  H11B  8339   0.090000   1.008000
 8340         PL    65  DPPC     P  8340   1.500000  30.974001
 8341        O2L    65  DPPC   O13  8341  -0.780000  15.999400
 8342        O2L    65  DPPC   O14  8342  -0.780000  15.999400
 8343       OSLP    65  DPPC   O11  8343  -0.570000  15.999400
 8344       OSLP    65  DPPC   O12  8344  -0.570000  15.999400
 8345       CTL2    65  DPPC    C1  8345  -0.080000  12.011000
 8346       HAL2    65  DPPC    HA  8346   0.090000   1.008000
 8347       HAL2    65  DPPC    HB  8347   0.090000   1.008000
 8348       CTL1    65  DPPC    C2  8348   0.170000  12.011000
 8349       HAL1    65  DPPC    HS  8349   0.090000   1.008000
 8350        OSL    65  DPPC   O21  8350  -0.490000  15.999400
 8351         CL    65  DPPC   C21  8351   0.900000  12.011000
 8352        OBL    65  DPPC   O22  8352  -0.630000  15.999400
 8353       CTL2    65  DPPC   C22  8353  -0.220000  12.011000
 8354       HAL2    65  DPPC   H2R  8354   0.090000   1.008000
 8355       HAL2    65  DPPC   H2S  8355   0.090000   1.008000
 8356       CTL2    65  DPPC    C3  8356   0.080000  12.011000
 8357       HAL2    65  DPPC    HX  8357   0.090000   1.008000
 8358       HAL2    65  DPPC    HY  8358   0.090000   1.008000
 8359        OSL    65  DPPC   O31  8359  -0.490000  15.999400
 8360         CL    65  DPPC   C31  8360   0.900000  12.011000
 8361        OBL    65  DPPC   O32  8361  -0.630000  15.999400
 8362       CTL2    65  DPPC   C32  8362  -0.220000  12.011000
 8363       HAL2    65  DPPC   H2X  8363   0.090000   1.008000
 8364       HAL2    65  DPPC   H2Y  8364   0.090000   1.008000
 8365       CTL2    65  DPPC   C23  8365  -0.180000  12.011000
 8366       HAL2    65  DPPC   H3R  8366   0.090000   1.008000
 8367       HAL2    65  DPPC   H3S  8367   0.090000   1.008000
 8368       CTL2    65  DPPC   C24  8368  -0.180000  12.011000
 8369       HAL2    65  DPPC   H4R  8369   0.090000   1.008000
 8370       HAL2    65  DPPC   H4S  8370   0.090000   1.008000
 8371       CTL2    65  DPPC   C25  8371  -0.180000  12.011000
 8372       HAL2    65  DPPC   H5R  8372   0.090000   1.008000
 8373       HAL2    65  DPPC   H5S  8373   0.090000   1.008000
 8374       CTL2    65  DPPC   C26  8374  -0.180000  12.011000
 8375       HAL2    65  DPPC   H6R  8375   0.090000   1.008000
 8376       HAL2    65  DPPC   H6S  8376   0.090000   1.008000
 8377       CTL2    65  DPPC   C27  8377  -0.180000  12.011000
 8378       HAL2    65  DPPC   H7R  8378   0.090000   1.008000
 8379       HAL2    65  DPPC   H7S  8379   0.090000   1.008000
 8380       CTL2    65  DPPC   C28  8380  -0.180000  12.011000
 8381       HAL2    65  DPPC   H8R  8381   0.090000   1.008000
 8382       HAL2    65  DPPC   H8S  8382   0.090000   1.008000
 8383       CTL2    65  DPPC   C29  8383  -0.180000  12.011000
 8384       HAL2    65  DPPC   H9R  8384   0.090000   1.008000
 8385       HAL2    65  DPPC   H9S  8385   0.090000   1.008000
 8386       CTL2    65  DPPC  C210  8386  -0.180000  12.011000
 8387       HAL2    65  DPPC  H10R  8387   0.090000   1.008000
 8388       HAL2    65  DPPC  H10S  8388   0.090000   1.008000
 8389       CTL2    65  DPPC  C211  8389  -0.180000  12.011000
 8390       HAL2    65  DPPC  H11R  8390   0.090000   1.008000
 8391       HAL2    65  DPPC  H11S  8391   0.090000   1.008000
 8392       CTL2    65  DPPC  C212  8392  -0.180000  12.011000
 8393       HAL2    65  DPPC  H12R  8393   0.090000   1.008000
 8394       HAL2    65  DPPC  H12S  8394   0.090000   1.008000
 8395       CTL2    65  DPPC  C213  8395  -0.180000  12.011000
 8396       HAL2    65  DPPC  H13R  8396   0.090000   1.008000
 8397       HAL2    65  DPPC  H13S  8397   0.090000   1.008000
 8398       CTL2    65  DPPC  C214  8398  -0.180000  12.011000
 8399       HAL2    65  DPPC  H14R  8399   0.090000   1.008000
 8400       HAL2    65  DPPC  H14S  8400   0.090000   1.008000
 8401       CTL2    65  DPPC  C215  8401  -0.180000  12.011000
 8402       HAL2    65  DPPC  H15R  8402   0.090000   1.008000
 8403       HAL2    65  DPPC  H15S  8403   0.090000   1.008000
 8404       CTL3    65  DPPC  C216  8404  -0.270000  12.011000
 8405       HAL3    65  DPPC  H16R  8405   0.090000   1.008000
 8406       HAL3    65  DPPC  H16S  8406   0.090000   1.008000
 8407       HAL3    65  DPPC  H16T  8407   0.090000   1.008000
 8408       CTL2    65  DPPC   C33  8408  -0.180000  12.011000
 8409       HAL2    65  DPPC   H3X  8409   0.090000   1.008000
 8410       HAL2    65  DPPC   H3Y  8410   0.090000   1.008000
 8411       CTL2    65  DPPC   C34  8411  -0.180000  12.011000
 8412       HAL2    65  DPPC   H4X  8412   0.090000   1.008000
 8413       HAL2    65  DPPC   H4Y  8413   0.090000   1.008000
 8414       CTL2    65  DPPC   C35  8414  -0.180000  12.011000
 8415       HAL2    65  DPPC   H5X  8415   0.090000   1.008000
 8416       HAL2    65  DPPC   H5Y  8416   0.090000   1.008000
 8417       CTL2    65  DPPC   C36  8417  -0.180000  12.011000
 8418       HAL2    65  DPPC   H6X  8418   0.090000   1.008000
 8419       HAL2    65  DPPC   H6Y  8419   0.090000   1.008000
 8420       CTL2    65  DPPC   C37  8420  -0.180000  12.011000
 8421       HAL2    65  DPPC   H7X  8421   0.090000   1.008000
 8422       HAL2    65  DPPC   H7Y  8422   0.090000   1.008000
 8423       CTL2    65  DPPC   C38  8423  -0.180000  12.011000
 8424       HAL2    65  DPPC   H8X  8424   0.090000   1.008000
 8425       HAL2    65  DPPC   H8Y  8425   0.090000   1.008000
 8426       CTL2    65  DPPC   C39  8426  -0.180000  12.011000
 8427       HAL2    65  DPPC   H9X  8427   0.090000   1.008000
 8428       HAL2    65  DPPC   H9Y  8428   0.090000   1.008000
 8429       CTL2    65  DPPC  C310  8429  -0.180000  12.011000
 8430       HAL2    65  DPPC  H10X  8430   0.090000   1.008000
 8431       HAL2    65  DPPC  H10Y  8431   0.090000   1.008000
 8432       CTL2    65  DPPC  C311  8432  -0.180000  12.011000
 8433       HAL2    65  DPPC  H11X  8433   0.090000   1.008000
 8434       HAL2    65  DPPC  H11Y  8434   0.090000   1.008000
 8435       CTL2    65  DPPC  C312  8435  -0.180000  12.011000
 8436       HAL2    65  DPPC  H12X  8436   0.090000   1.008000
 8437       HAL2    65  DPPC  H12Y  8437   0.090000   1.008000
 8438       CTL2    65  DPPC  C313  8438  -0.180000  12.011000
 8439       HAL2    65  DPPC  H13X  8439   0.090000   1.008000
 8440       HAL2    65  DPPC  H13Y  8440   0.090000   1.008000
 8441       CTL2    65  DPPC  C314  8441  -0.180000  12.011000
 8442       HAL2    65  DPPC  H14X  8442   0.090000   1.008000
 8443       HAL2    65  DPPC  H14Y  8443   0.090000   1.008000
 8444       CTL2    65  DPPC  C315  8444  -0.180000  12.011000
 8445       HAL2    65  DPPC  H15X  8445   0.090000   1.008000
 8446       HAL2    65  DPPC  H15Y  8446   0.090000   1.008000
 8447       CTL3    65  DPPC  C316  8447  -0.270000  12.011000
 8448       HAL3    65  DPPC  H16X  8448   0.090000   1.008000
 8449       HAL3    65  DPPC  H16Y  8449   0.090000   1.008000
 8450       HAL3    65  DPPC  H16Z  8450   0.090000   1.008000
 8451        NTL    66  DPPC     N  8451  -0.600000  14.007000
 8452       CTL5    66  DPPC   C13  8452  -0.350000  12.011000
 8453         HL    66  DPPC  H13A  8453   0.250000   1.008000
 8454         HL    66  DPPC  H13B  8454   0.250000   1.008000
 8455         HL    66  DPPC  H13C  8455   0.250000   1.008000
 8456       CTL5    66  DPPC   C14  8456  -0.350000  12.011000
 8457         HL    66  DPPC  H14A  8457   0.250000   1.008000
 8458         HL    66  DPPC  H14B  8458   0.250000   1.008000
 8459         HL    66  DPPC  H14C  8459   0.250000   1.008000
 8460       CTL5    66  DPPC   C15  8460  -0.350000  12.011000
 8461         HL    66  DPPC  H15A  8461   0.250000   1.008000
 8462         HL    66  DPPC  H15B  8462   0.250000   1.008000
 8463         HL    66  DPPC  H15C  8463   0.250000   1.008000
 8464       CTL2    66  DPPC   C12  8464  -0.100000  12.011000
 8465         HL    66  DPPC  H12A  8465   0.250000   1.008000
 8466         HL    66  DPPC  H12B  8466   0.250000   1.008000
 8467       CTL2    66  DPPC   C11  8467  -0.080000  12.011000
 8468       HAL2    66  DPPC  H11A  8468   0.090000   1.008000
 8469       HAL2    66  DPPC  H11B  8469   0.090000   1.008000
 8470         PL    66  DPPC     P  8470   1.500000  30.974001
 8471        O2L    66  DPPC   O13  8471  -0.780000  15.999400
 8472        O2L    66  DPPC   O14  8472  -0.780000  15.999400
 8473       OSLP    66  DPPC   O11  8473  -0.570000  15.999400
 8474       OSLP    66  DPPC   O12  8474  -0.570000  15.999400
 8475       CTL2    66  DPPC    C1  8475  -0.080000  12.011000
 8476       HAL2    66  DPPC    HA  8476   0.090000   1.008000
 8477       HAL2    66  DPPC    HB  8477   0.090000   1.008000
 8478       CTL1    66  DPPC    C2  8478   0.170000  12.011000
 8479       HAL1    66  DPPC    HS  8479   0.090000   1.008000
 8480        OSL    66  DPPC   O21  8480  -0.490000  15.999400
 8481         CL    66  DPPC   C21  8481   0.900000  12.011000
 8482        OBL    66  DPPC   O22  8482  -0.630000  15.999400
 8483       CTL2    66  DPPC   C22  8483  -0.220000  12.011000
 8484       HAL2    66  DPPC   H2R  8484   0.090000   1.008000
 8485       HAL2    66  DPPC   H2S  8485   0.090000   1.008000
 8486       CTL2    66  DPPC    C3  8486   0.080000  12.011000
 8487       HAL2    66  DPPC    HX  8487   0.090000   1.008000
 8488       HAL2    66  DPPC    HY  8488   0.090000   1.008000
 8489        OSL    66  DPPC   O31  8489  -0.490000  15.999400
 8490         CL    66  DPPC   C31  8490   0.900000  12.011000
 8491        OBL    66  DPPC   O32  8491  -0.630000  15.999400
 8492       CTL2    66  DPPC   C32  8492  -0.220000  12.011000
 8493       HAL2    66  DPPC   H2X  8493   0.090000   1.008000
 8494       HAL2    66  DPPC   H2Y  8494   0.090000   1.008000
 8495       CTL2    66  DPPC   C23  8495  -0.180000  12.011000
 8496       HAL2    66  DPPC   H3R  8496   0.090000   1.008000
 8497       HAL2    66  DPPC   H3S  8497   0.090000   1.008000
 8498       CTL2    66  DPPC   C24  8498  -0.180000  12.011000
 8499       HAL2    66  DPPC   H4R  8499   0.090000   1.008000
 8500       HAL2    66  DPPC   H4S  8500   0.090000   1.008000
 8501       CTL2    66  DPPC   C25  8501  -0.180000  12.011000
 8502       HAL2    66  DPPC   H5R  8502   0.090000   1.008000
 8503       HAL2    66  DPPC   H5S  8503   0.090000   1.008000
 8504       CTL2    66  DPPC   C26  8504  -0.180000  12.011000
 8505       HAL2    66  DPPC   H6R  8505   0.090000   1.008000
 8506       HAL2    66  DPPC   H6S  8506   0.090000   1.008000
 8507       CTL2    66  DPPC   C27  8507  -0.180000  12.011000
 8508       HAL2    66  DPPC   H7R  8508   0.090000   1.008000
 8509       HAL2    66  DPPC   H7S  8509   0.090000   1.008000
 8510       CTL2    66  DPPC   C28  8510  -0.180000  12.011000
 8511       HAL2    66  DPPC   H8R  8511   0.090000   1.008000
 8512       HAL2    66  DPPC   H8S  8512   0.090000   1.008000
 8513       CTL2    66  DPPC   C29  8513  -0.180000  12.011000
 8514       HAL2    66  DPPC   H9R  8514   0.090000   1.008000
 8515       HAL2    66  DPPC   H9S  8515   0.090000   1.008000
 8516       CTL2    66  DPPC  C210  8516  -0.180000  12.011000
 8517       HAL2    66  DPPC  H10R  8517   0.090000   1.008000
 8518       HAL2    66  DPPC  H10S  8518   0.090000   1.008000
 8519       CTL2    66  DPPC  C211  8519  -0.180000  12.011000
 8520       HAL2    66  DPPC  H11R  8520   0.090000   1.008000
 8521       HAL2    66  DPPC  H11S  8521   0.090000   1.008000
 8522       CTL2    66  DPPC  C212  8522  -0.180000  12.011000
 8523       HAL2    66  DPPC  H12R  8523   0.090000   1.008000
 8524       HAL2    66  DPPC  H12S  8524   0.090000   1.008000
 8525       CTL2    66  DPPC  C213  8525  -0.180000  12.011000
 8526       HAL2    66  DPPC  H13R  8526   0.090000   1.008000
 8527       HAL2    66  DPPC  H13S  8527   0.090000   1.008000
 8528       CTL2    66  DPPC  C214  8528  -0.180000  12.011000
 8529       HAL2    66  DPPC  H14R  8529   0.090000   1.008000
 8530       HAL2    66  DPPC  H14S  8530   0.090000   1.008000
 8531       CTL2    66  DPPC  C215  8531  -0.180000  12.011000
 8532       HAL2    66  DPPC  H15R  8532   0.090000   1.008000
 8533       HAL2    66  DPPC  H15S  8533   0.090000   1.008000
 8534       CTL3    66  DPPC  C216  8534  -0.270000  12.011000
 8535       HAL3    66  DPPC  H16R  8535   0.090000   1.008000
 8536       HAL3    66  DPPC  H16S  8536   0.090000   1.008000
 8537       HAL3    66  DPPC  H16T  8537   0.090000   1.008000
 8538       CTL2    66  DPPC   C33  8538  -0.180000  12.011000
 8539       HAL2    66  DPPC   H3X  8539   0.090000   1.008000
 8540       HAL2    66  DPPC   H3Y  8540   0.090000   1.008000
 8541       CTL2    66  DPPC   C34  8541  -0.180000  12.011000
 8542       HAL2    66  DPPC   H4X  8542   0.090000   1.008000
 8543       HAL2    66  DPPC   H4Y  8543   0.090000   1.008000
 8544       CTL2    66  DPPC   C35  8544  -0.180000  12.011000
 8545       HAL2    66  DPPC   H5X  8545   0.090000   1.008000
 8546       HAL2    66  DPPC   H5Y  8546   0.090000   1.008000
 8547       CTL2    66  DPPC   C36  8547  -0.180000  12.011000
 8548       HAL2    66  DPPC   H6X  8548   0.090000   1.008000
 8549       HAL2    66  DPPC   H6Y  8549   0.090000   1.008000
 8550       CTL2    66  DPPC   C37  8550  -0.180000  12.011000
 8551       HAL2    66  DPPC   H7X  8551   0.090000   1.008000
 8552       HAL2    66  DPPC   H7Y  8552   0.090000   1.008000
 8553       CTL2    66  DPPC   C38  8553  -0.180000  12.011000
 8554       HAL2    66  DPPC   H8X  8554   0.090000   1.008000
 8555       HAL2    66  DPPC   H8Y  8555   0.090000   1.008000
 8556       CTL2    66  DPPC   C39  8556  -0.180000  12.011000
 8557       HAL2    66  DPPC   H9X  8557   0.090000   1.008000
 8558       HAL2    66  DPPC   H9Y  8558   0.090000   1.008000
 8559       CTL2    66  DPPC  C310  8559  -0.180000  12.011000
 8560       HAL2    66  DPPC  H10X  8560   0.090000   1.008000
 8561       HAL2    66  DPPC  H10Y  8561   0.090000   1.008000
 8562       CTL2    66  DPPC  C311  8562  -0.180000  12.011000
 8563       HAL2    66  DPPC  H11X  8563   0.090000   1.008000
 8564       HAL2    66  DPPC  H11Y  8564   0.090000   1.008000
 8565       CTL2    66  DPPC  C312  8565  -0.180000  12.011000
 8566       HAL2    66  DPPC  H12X  8566   0.090000   1.008000
 8567       HAL2    66  DPPC  H12Y  8567   0.090000   1.008000
 8568       CTL2    66  DPPC  C313  8568  -0.180000  12.011000
 8569       HAL2    66  DPPC  H13X  8569   0.090000   1.008000
 8570       HAL2    66  DPPC  H13Y  8570   0.090000   1.008000
 8571       CTL2    66  DPPC  C314  8571  -0.180000  12.011000
 8572       HAL2    66  DPPC  H14X  8572   0.090000   1.008000
 8573       HAL2    66  DPPC  H14Y  8573   0.090000   1.008000
 8574       CTL2    66  DPPC  C315  8574  -0.180000  12.011000
 8575       HAL2    66  DPPC  H15X  8575   0.090000   1.008000
 8576       HAL2    66  DPPC  H15Y  8576   0.090000   1.008000
 8577       CTL3    66  DPPC  C316  8577  -0.270000  12.011000
 8578       HAL3    66  DPPC  H16X  8578   0.090000   1.008000
 8579       HAL3    66  DPPC  H16Y  8579   0.090000   1.008000
 8580       HAL3    66  DPPC  H16Z  8580   0.090000   1.008000
 8581        NTL    67  DPPC     N  8581  -0.600000  14.007000
 8582       CTL5    67  DPPC   C13  8582  -0.350000  12.011000
 8583         HL    67  DPPC  H13A  8583   0.250000   1.008000
 8584         HL    67  DPPC  H13B  8584   0.250000   1.008000
 8585         HL    67  DPPC  H13C  8585   0.250000   1.008000
 8586       CTL5    67  DPPC   C14  8586  -0.350000  12.011000
 8587         HL    67  DPPC  H14A  8587   0.250000   1.008000
 8588         HL    67  DPPC  H14B  8588   0.250000   1.008000
 8589         HL    67  DPPC  H14C  8589   0.250000   1.008000
 8590       CTL5    67  DPPC   C15  8590  -0.350000  12.011000
 8591         HL    67  DPPC  H15A  8591   0.250000   1.008000
 8592         HL    67  DPPC  H15B  8592   0.250000   1.008000
 8593         HL    67  DPPC  H15C  8593   0.250000   1.008000
 8594       CTL2    67  DPPC   C12  8594  -0.100000  12.011000
 8595         HL    67  DPPC  H12A  8595   0.250000   1.008000
 8596         HL    67  DPPC  H12B  8596   0.250000   1.008000
 8597       CTL2    67  DPPC   C11  8597  -0.080000  12.011000
 8598       HAL2    67  DPPC  H11A  8598   0.090000   1.008000
 8599       HAL2    67  DPPC  H11B  8599   0.090000   1.008000
 8600         PL    67  DPPC     P  8600   1.500000  30.974001
 8601        O2L    67  DPPC   O13  8601  -0.780000  15.999400
 8602        O2L    67  DPPC   O14  8602  -0.780000  15.999400
 8603       OSLP    67  DPPC   O11  8603  -0.570000  15.999400
 8604       OSLP    67  DPPC   O12  8604  -0.570000  15.999400
 8605       CTL2    67  DPPC    C1  8605  -0.080000  12.011000
 8606       HAL2    67  DPPC    HA  8606   0.090000   1.008000
 8607       HAL2    67  DPPC    HB  8607   0.090000   1.008000
 8608       CTL1    67  DPPC    C2  8608   0.170000  12.011000
 8609       HAL1    67  DPPC    HS  8609   0.090000   1.008000
 8610        OSL    67  DPPC   O21  8610  -0.490000  15.999400
 8611         CL    67  DPPC   C21  8611   0.900000  12.011000
 8612        OBL    67  DPPC   O22  8612  -0.630000  15.999400
 8613       CTL2    67  DPPC   C22  8613  -0.220000  12.011000
 8614       HAL2    67  DPPC   H2R  8614   0.090000   1.008000
 8615       HAL2    67  DPPC   H2S  8615   0.090000   1.008000
 8616       CTL2    67  DPPC    C3  8616   0.080000  12.011000
 8617       HAL2    67  DPPC    HX  8617   0.090000   1.008000
 8618       HAL2    67  DPPC    HY  8618   0.090000   1.008000
 8619        OSL    67  DPPC   O31  8619  -0.490000  15.999400
 8620         CL    67  DPPC   C31  8620   0.900000  12.011000
 8621        OBL    67  DPPC   O32  8621  -0.630000  15.999400
 8622       CTL2    67  DPPC   C32  8622  -0.220000  12.011000
 8623       HAL2    67  DPPC   H2X  8623   0.090000   1.008000
 8624       HAL2    67  DPPC   H2Y  8624   0.090000   1.008000
 8625       CTL2    67  DPPC   C23  8625  -0.180000  12.011000
 8626       HAL2    67  DPPC   H3R  8626   0.090000   1.008000
 8627       HAL2    67  DPPC   H3S  8627   0.090000   1.008000
 8628       CTL2    67  DPPC   C24  8628  -0.180000  12.011000
 8629       HAL2    67  DPPC   H4R  8629   0.090000   1.008000
 8630       HAL2    67  DPPC   H4S  8630   0.090000   1.008000
 8631       CTL2    67  DPPC   C25  8631  -0.180000  12.011000
 8632       HAL2    67  DPPC   H5R  8632   0.090000   1.008000
 8633       HAL2    67  DPPC   H5S  8633   0.090000   1.008000
 8634       CTL2    67  DPPC   C26  8634  -0.180000  12.011000
 8635       HAL2    67  DPPC   H6R  8635   0.090000   1.008000
 8636       HAL2    67  DPPC   H6S  8636   0.090000   1.008000
 8637       CTL2    67  DPPC   C27  8637  -0.180000  12.011000
 8638       HAL2    67  DPPC   H7R  8638   0.090000   1.008000
 8639       HAL2    67  DPPC   H7S  8639   0.090000   1.008000
 8640       CTL2    67  DPPC   C28  8640  -0.180000  12.011000
 8641       HAL2    67  DPPC   H8R  8641   0.090000   1.008000
 8642       HAL2    67  DPPC   H8S  8642   0.090000   1.008000
 8643       CTL2    67  DPPC   C29  8643  -0.180000  12.011000
 8644       HAL2    67  DPPC   H9R  8644   0.090000   1.008000
 8645       HAL2    67  DPPC   H9S  8645   0.090000   1.008000
 8646       CTL2    67  DPPC  C210  8646  -0.180000  12.011000
 8647       HAL2    67  DPPC  H10R  8647   0.090000   1.008000
 8648       HAL2    67  DPPC  H10S  8648   0.090000   1.008000
 8649       CTL2    67  DPPC  C211  8649  -0.180000  12.011000
 8650       HAL2    67  DPPC  H11R  8650   0.090000   1.008000
 8651       HAL2    67  DPPC  H11S  8651   0.090000   1.008000
 8652       CTL2    67  DPPC  C212  8652  -0.180000  12.011000
 8653       HAL2    67  DPPC  H12R  8653   0.090000   1.008000
 8654       HAL2    67  DPPC  H12S  8654   0.090000   1.008000
 8655       CTL2    67  DPPC  C213  8655  -0.180000  12.011000
 8656       HAL2    67  DPPC  H13R  8656   0.090000   1.008000
 8657       HAL2    67  DPPC  H13S  8657   0.090000   1.008000
 8658       CTL2    67  DPPC  C214  8658  -0.180000  12.011000
 8659       HAL2    67  DPPC  H14R  8659   0.090000   1.008000
 8660       HAL2    67  DPPC  H14S  8660   0.090000   1.008000
 8661       CTL2    67  DPPC  C215  8661  -0.180000  12.011000
 8662       HAL2    67  DPPC  H15R  8662   0.090000   1.008000
 8663       HAL2    67  DPPC  H15S  8663   0.090000   1.008000
 8664       CTL3    67  DPPC  C216  8664  -0.270000  12.011000
 8665       HAL3    67  DPPC  H16R  8665   0.090000   1.008000
 8666       HAL3    67  DPPC  H16S  8666   0.090000   1.008000
 8667       HAL3    67  DPPC  H16T  8667   0.090000   1.008000
 8668       CTL2    67  DPPC   C33  8668  -0.180000  12.011000
 8669       HAL2    67  DPPC   H3X  8669   0.090000   1.008000
 8670       HAL2    67  DPPC   H3Y  8670   0.090000   1.008000
 8671       CTL2    67  DPPC   C34  8671  -0.180000  12.011000
 8672       HAL2    67  DPPC   H4X  8672   0.090000   1.008000
 8673       HAL2    67  DPPC   H4Y  8673   0.090000   1.008000
 8674       CTL2    67  DPPC   C35  8674  -0.180000  12.011000
 8675       HAL2    67  DPPC   H5X  8675   0.090000   1.008000
 8676       HAL2    67  DPPC   H5Y  8676   0.090000   1.008000
 8677       CTL2    67  DPPC   C36  8677  -0.180000  12.011000
 8678       HAL2    67  DPPC   H6X  8678   0.090000   1.008000
 8679       HAL2    67  DPPC   H6Y  8679   0.090000   1.008000
 8680       CTL2    67  DPPC   C37  8680  -0.180000  12.011000
 8681       HAL2    67  DPPC   H7X  8681   0.090000   1.008000
 8682       HAL2    67  DPPC   H7Y  8682   0.090000   1.008000
 8683       CTL2    67  DPPC   C38  8683  -0.180000  12.011000
 8684       HAL2    67  DPPC   H8X  8684   0.090000   1.008000
 8685       HAL2    67  DPPC   H8Y  8685   0.090000   1.008000
 8686       CTL2    67  DPPC   C39  8686  -0.180000  12.011000
 8687       HAL2    67  DPPC   H9X  8687   0.090000   1.008000
 8688       HAL2    67  DPPC   H9Y  8688   0.090000   1.008000
 8689       CTL2    67  DPPC  C310  8689  -0.180000  12.011000
 8690       HAL2    67  DPPC  H10X  8690   0.090000   1.008000
 8691       HAL2    67  DPPC  H10Y  8691   0.090000   1.008000
 8692       CTL2    67  DPPC  C311  8692  -0.180000  12.011000
 8693       HAL2    67  DPPC  H11X  8693   0.090000   1.008000
 8694       HAL2    67  DPPC  H11Y  8694   0.090000   1.008000
 8695       CTL2    67  DPPC  C312  8695  -0.180000  12.011000
 8696       HAL2    67  DPPC  H12X  8696   0.090000   1.008000
 8697       HAL2    67  DPPC  H12Y  8697   0.090000   1.008000
 8698       CTL2    67  DPPC  C313  8698  -0.180000  12.011000
 8699       HAL2    67  DPPC  H13X  8699   0.090000   1.008000
 8700       HAL2    67  DPPC  H13Y  8700   0.090000   1.008000
 8701       CTL2    67  DPPC  C314  8701  -0.180000  12.011000
 8702       HAL2    67  DPPC  H14X  8702   0.090000   1.008000
 8703       HAL2    67  DPPC  H14Y  8703   0.090000   1.008000
 8704       CTL2    67  DPPC  C315  8704  -0.180000  12.011000
 8705       HAL2    67  DPPC  H15X  8705   0.090000   1.008000
 8706       HAL2    67  DPPC  H15Y  8706   0.090000   1.008000
 8707       CTL3    67  DPPC  C316  8707  -0.270000  12.011000
 8708       HAL3    67  DPPC  H16X  8708   0.090000   1.008000
 8709       HAL3    67  DPPC  H16Y  8709   0.090000   1.008000
 8710       HAL3    67  DPPC  H16Z  8710   0.090000   1.008000
 8711        NTL    68  DPPC     N  8711  -0.600000  14.007000
 8712       CTL5    68  DPPC   C13  8712  -0.350000  12.011000
 8713         HL    68  DPPC  H13A  8713   0.250000   1.008000
 8714         HL    68  DPPC  H13B  8714   0.250000   1.008000
 8715         HL    68  DPPC  H13C  8715   0.250000   1.008000
 8716       CTL5    68  DPPC   C14  8716  -0.350000  12.011000
 8717         HL    68  DPPC  H14A  8717   0.250000   1.008000
 8718         HL    68  DPPC  H14B  8718   0.250000   1.008000
 8719         HL    68  DPPC  H14C  8719   0.250000   1.008000
 8720       CTL5    68  DPPC   C15  8720  -0.350000  12.011000
 8721         HL    68  DPPC  H15A  8721   0.250000   1.008000
 8722         HL    68  DPPC  H15B  8722   0.250000   1.008000
 8723         HL    68  DPPC  H15C  8723   0.250000   1.008000
 8724       CTL2    68  DPPC   C12  8724  -0.100000  12.011000
 8725         HL    68  DPPC  H12A  8725   0.250000   1.008000
 8726         HL    68  DPPC  H12B  8726   0.250000   1.008000
 8727       CTL2    68  DPPC   C11  8727  -0.080000  12.011000
 8728       HAL2    68  DPPC  H11A  8728   0.090000   1.008000
 8729       HAL2    68  DPPC  H11B  8729   0.090000   1.008000
 8730         PL    68  DPPC     P  8730   1.500000  30.974001
 8731        O2L    68  DPPC   O13  8731  -0.780000  15.999400
 8732        O2L    68  DPPC   O14  8732  -0.780000  15.999400
 8733       OSLP    68  DPPC   O11  8733  -0.570000  15.999400
 8734       OSLP    68  DPPC   O12  8734  -0.570000  15.999400
 8735       CTL2    68  DPPC    C1  8735  -0.080000  12.011000
 8736       HAL2    68  DPPC    HA  8736   0.090000   1.008000
 8737       HAL2    68  DPPC    HB  8737   0.090000   1.008000
 8738       CTL1    68  DPPC    C2  8738   0.170000  12.011000
 8739       HAL1    68  DPPC    HS  8739   0.090000   1.008000
 8740        OSL    68  DPPC   O21  8740  -0.490000  15.999400
 8741         CL    68  DPPC   C21  8741   0.900000  12.011000
 8742        OBL    68  DPPC   O22  8742  -0.630000  15.999400
 8743       CTL2    68  DPPC   C22  8743  -0.220000  12.011000
 8744       HAL2    68  DPPC   H2R  8744   0.090000   1.008000
 8745       HAL2    68  DPPC   H2S  8745   0.090000   1.008000
 8746       CTL2    68  DPPC    C3  8746   0.080000  12.011000
 8747       HAL2    68  DPPC    HX  8747   0.090000   1.008000
 8748       HAL2    68  DPPC    HY  8748   0.090000   1.008000
 8749        OSL    68  DPPC   O31  8749  -0.490000  15.999400
 8750         CL    68  DPPC   C31  8750   0.900000  12.011000
 8751        OBL    68  DPPC   O32  8751  -0.630000  15.999400
 8752       CTL2    68  DPPC   C32  8752  -0.220000  12.011000
 8753       HAL2    68  DPPC   H2X  8753   0.090000   1.008000
 8754       HAL2    68  DPPC   H2Y  8754   0.090000   1.008000
 8755       CTL2    68  DPPC   C23  8755  -0.180000  12.011000
 8756       HAL2    68  DPPC   H3R  8756   0.090000   1.008000
 8757       HAL2    68  DPPC   H3S  8757   0.090000   1.008000
 8758       CTL2    68  DPPC   C24  8758  -0.180000  12.011000
 8759       HAL2    68  DPPC   H4R  8759   0.090000   1.008000
 8760       HAL2    68  DPPC   H4S  8760   0.090000   1.008000
 8761       CTL2    68  DPPC   C25  8761  -0.180000  12.011000
 8762       HAL2    68  DPPC   H5R  8762   0.090000   1.008000
 8763       HAL2    68  DPPC   H5S  8763   0.090000   1.008000
 8764       CTL2    68  DPPC   C26  8764  -0.180000  12.011000
 8765       HAL2    68  DPPC   H6R  8765   0.090000   1.008000
 8766       HAL2    68  DPPC   H6S  8766   0.090000   1.008000
 8767       CTL2    68  DPPC   C27  8767  -0.180000  12.011000
 8768       HAL2    68  DPPC   H7R  8768   0.090000   1.008000
 8769       HAL2    68  DPPC   H7S  8769   0.090000   1.008000
 8770       CTL2    68  DPPC   C28  8770  -0.180000  12.011000
 8771       HAL2    68  DPPC   H8R  8771   0.090000   1.008000
 8772       HAL2    68  DPPC   H8S  8772   0.090000   1.008000
 8773       CTL2    68  DPPC   C29  8773  -0.180000  12.011000
 8774       HAL2    68  DPPC   H9R  8774   0.090000   1.008000
 8775       HAL2    68  DPPC   H9S  8775   0.090000   1.008000
 8776       CTL2    68  DPPC  C210  8776  -0.180000  12.011000
 8777       HAL2    68  DPPC  H10R  8777   0.090000   1.008000
 8778       HAL2    68  DPPC  H10S  8778   0.090000   1.008000
 8779       CTL2    68  DPPC  C211  8779  -0.180000  12.011000
 8780       HAL2    68  DPPC  H11R  8780   0.090000   1.008000
 8781       HAL2    68  DPPC  H11S  8781   0.090000   1.008000
 8782       CTL2    68  DPPC  C212  8782  -0.180000  12.011000
 8783       HAL2    68  DPPC  H12R  8783   0.090000   1.008000
 8784       HAL2    68  DPPC  H12S  8784   0.090000   1.008000
 8785       CTL2    68  DPPC  C213  8785  -0.180000  12.011000
 8786       HAL2    68  DPPC  H13R  8786   0.090000   1.008000
 8787       HAL2    68  DPPC  H13S  8787   0.090000   1.008000
 8788       CTL2    68  DPPC  C214  8788  -0.180000  12.011000
 8789       HAL2    68  DPPC  H14R  8789   0.090000   1.008000
 8790       HAL2    68  DPPC  H14S  8790   0.090000   1.008000
 8791       CTL2    68  DPPC  C215  8791  -0.180000  12.011000
 8792       HAL2    68  DPPC  H15R  8792   0.090000   1.008000
 8793       HAL2    68  DPPC  H15S  8793   0.090000   1.008000
 8794       CTL3    68  DPPC  C216  8794  -0.270000  12.011000
 8795       HAL3    68  DPPC  H16R  8795   0.090000   1.008000
 8796       HAL3    68  DPPC  H16S  8796   0.090000   1.008000
 8797       HAL3    68  DPPC  H16T  8797   0.090000   1.008000
 8798       CTL2    68  DPPC   C33  8798  -0.180000  12.011000
 8799       HAL2    68  DPPC   H3X  8799   0.090000   1.008000
 8800       HAL2    68  DPPC   H3Y  8800   0.090000   1.008000
 8801       CTL2    68  DPPC   C34  8801  -0.180000  12.011000
 8802       HAL2    68  DPPC   H4X  8802   0.090000   1.008000
 8803       HAL2    68  DPPC   H4Y  8803   0.090000   1.008000
 8804       CTL2    68  DPPC   C35  8804  -0.180000  12.011000
 8805       HAL2    68  DPPC   H5X  8805   0.090000   1.008000
 8806       HAL2    68  DPPC   H5Y  8806   0.090000   1.008000
 8807       CTL2    68  DPPC   C36  8807  -0.180000  12.011000
 8808       HAL2    68  DPPC   H6X  8808   0.090000   1.008000
 8809       HAL2    68  DPPC   H6Y  8809   0.090000   1.008000
 8810       CTL2    68  DPPC   C37  8810  -0.180000  12.011000
 8811       HAL2    68  DPPC   H7X  8811   0.090000   1.008000
 8812       HAL2    68  DPPC   H7Y  8812   0.090000   1.008000
 8813       CTL2    68  DPPC   C38  8813  -0.180000  12.011000
 8814       HAL2    68  DPPC   H8X  8814   0.090000   1.008000
 8815       HAL2    68  DPPC   H8Y  8815   0.090000   1.008000
 8816       CTL2    68  DPPC   C39  8816  -0.180000  12.011000
 8817       HAL2    68  DPPC   H9X  8817   0.090000   1.008000
 8818       HAL2    68  DPPC   H9Y  8818   0.090000   1.008000
 8819       CTL2    68  DPPC  C310  8819  -0.180000  12.011000
 8820       HAL2    68  DPPC  H10X  8820   0.090000   1.008000
 8821       HAL2    68  DPPC  H10Y  8821   0.090000   1.008000
 8822       CTL2    68  DPPC  C311  8822  -0.180000  12.011000
 8823       HAL2    68  DPPC  H11X  8823   0.090000   1.008000
 8824       HAL2    68  DPPC  H11Y  8824   0.090000   1.008000
 8825       CTL2    68  DPPC  C312  8825  -0.180000  12.011000
 8826       HAL2    68  DPPC  H12X  8826   0.090000   1.008000
 8827       HAL2    68  DPPC  H12Y  8827   0.090000   1.008000
 8828       CTL2    68  DPPC  C313  8828  -0.180000  12.011000
 8829       HAL2    68  DPPC  H13X  8829   0.090000   1.008000
 8830       HAL2    68  DPPC  H13Y  8830   0.090000   1.008000
 8831       CTL2    68  DPPC  C314  8831  -0.180000  12.011000
 8832       HAL2    68  DPPC  H14X  8832   0.090000   1.008000
 8833       HAL2    68  DPPC  H14Y  8833   0.090000   1.008000
 8834       CTL2    68  DPPC  C315  8834  -0.180000  12.011000
 8835       HAL2    68  DPPC  H15X  8835   0.090000   1.008000
 8836       HAL2    68  DPPC  H15Y  8836   0.090000   1.008000
 8837       CTL3    68  DPPC  C316  8837  -0.270000  12.011000
 8838       HAL3    68  DPPC  H16X  8838   0.090000   1.008000
 8839       HAL3    68  DPPC  H16Y  8839   0.090000   1.008000
 8840       HAL3    68  DPPC  H16Z  8840   0.090000   1.008000
 8841        NTL    69  DPPC     N  8841  -0.600000  14.007000
 8842       CTL5    69  DPPC   C13  8842  -0.350000  12.011000
 8843         HL    69  DPPC  H13A  8843   0.250000   1.008000
 8844         HL    69  DPPC  H13B  8844   0.250000   1.008000
 8845         HL    69  DPPC  H13C  8845   0.250000   1.008000
 8846       CTL5    69  DPPC   C14  8846  -0.350000  12.011000
 8847         HL    69  DPPC  H14A  8847   0.250000   1.008000
 8848         HL    69  DPPC  H14B  8848   0.250000   1.008000
 8849         HL    69  DPPC  H14C  8849   0.250000   1.008000
 8850       CTL5    69  DPPC   C15  8850  -0.350000  12.011000
 8851         HL    69  DPPC  H15A  8851   0.250000   1.008000
 8852         HL    69  DPPC  H15B  8852   0.250000   1.008000
 8853         HL    69  DPPC  H15C  8853   0.250000   1.008000
 8854       CTL2    69  DPPC   C12  8854  -0.100000  12.011000
 8855         HL    69  DPPC  H12A  8855   0.250000   1.008000
 8856         HL    69  DPPC  H12B  8856   0.250000   1.008000
 8857       CTL2    69  DPPC   C11  8857  -0.080000  12.011000
 8858       HAL2    69  DPPC  H11A  8858   0.090000   1.008000
 8859       HAL2    69  DPPC  H11B  8859   0.090000   1.008000
 8860         PL    69  DPPC     P  8860   1.500000  30.974001
 8861        O2L    69  DPPC   O13  8861  -0.780000  15.999400
 8862        O2L    69  DPPC   O14  8862  -0.780000  15.999400
 8863       OSLP    69  DPPC   O11  8863  -0.570000  15.999400
 8864       OSLP    69  DPPC   O12  8864  -0.570000  15.999400
 8865       CTL2    69  DPPC    C1  8865  -0.080000  12.011000
 8866       HAL2    69  DPPC    HA  8866   0.090000   1.008000
 8867       HAL2    69  DPPC    HB  8867   0.090000   1.008000
 8868       CTL1    69  DPPC    C2  8868   0.170000  12.011000
 8869       HAL1    69  DPPC    HS  8869   0.090000   1.008000
 8870        OSL    69  DPPC   O21  8870  -0.490000  15.999400
 8871         CL    69  DPPC   C21  8871   0.900000  12.011000
 8872        OBL    69  DPPC   O22  8872  -0.630000  15.999400
 8873       CTL2    69  DPPC   C22  8873  -0.220000  12.011000
 8874       HAL2    69  DPPC   H2R  8874   0.090000   1.008000
 8875       HAL2    69  DPPC   H2S  8875   0.090000   1.008000
 8876       CTL2    69  DPPC    C3  8876   0.080000  12.011000
 8877       HAL2    69  DPPC    HX  8877   0.090000   1.008000
 8878       HAL2    69  DPPC    HY  8878   0.090000   1.008000
 8879        OSL    69  DPPC   O31  8879  -0.490000  15.999400
 8880         CL    69  DPPC   C31  8880   0.900000  12.011000
 8881        OBL    69  DPPC   O32  8881  -0.630000  15.999400
 8882       CTL2    69  DPPC   C32  8882  -0.220000  12.011000
 8883       HAL2    69  DPPC   H2X  8883   0.090000   1.008000
 8884       HAL2    69  DPPC   H2Y  8884   0.090000   1.008000
 8885       CTL2    69  DPPC   C23  8885  -0.180000  12.011000
 8886       HAL2    69  DPPC   H3R  8886   0.090000   1.008000
 8887       HAL2    69  DPPC   H3S  8887   0.090000   1.008000
 8888       CTL2    69  DPPC   C24  8888  -0.180000  12.011000
 8889       HAL2    69  DPPC   H4R  8889   0.090000   1.008000
 8890       HAL2    69  DPPC   H4S  8890   0.090000   1.008000
 8891       CTL2    69  DPPC   C25  8891  -0.180000  12.011000
 8892       HAL2    69  DPPC   H5R  8892   0.090000   1.008000
 8893       HAL2    69  DPPC   H5S  8893   0.090000   1.008000
 8894       CTL2    69  DPPC   C26  8894  -0.180000  12.011000
 8895       HAL2    69  DPPC   H6R  8895   0.090000   1.008000
 8896       HAL2    69  DPPC   H6S  8896   0.090000   1.008000
 8897       CTL2    69  DPPC   C27  8897  -0.180000  12.011000
 8898       HAL2    69  DPPC   H7R  8898   0.090000   1.008000
 8899       HAL2    69  DPPC   H7S  8899   0.090000   1.008000
 8900       CTL2    69  DPPC   C28  8900  -0.180000  12.011000
 8901       HAL2    69  DPPC   H8R  8901   0.090000   1.008000
 8902       HAL2    69  DPPC   H8S  8902   0.090000   1.008000
 8903       CTL2    69  DPPC   C29  8903  -0.180000  12.011000
 8904       HAL2    69  DPPC   H9R  8904   0.090000   1.008000
 8905       HAL2    69  DPPC   H9S  8905   0.090000   1.008000
 8906       CTL2    69  DPPC  C210  8906  -0.180000  12.011000
 8907       HAL2    69  DPPC  H10R  8907   0.090000   1.008000
 8908       HAL2    69  DPPC  H10S  8908   0.090000   1.008000
 8909       CTL2    69  DPPC  C211  8909  -0.180000  12.011000
 8910       HAL2    69  DPPC  H11R  8910   0.090000   1.008000
 8911       HAL2    69  DPPC  H11S  8911   0.090000   1.008000
 8912       CTL2    69  DPPC  C212  8912  -0.180000  12.011000
 8913       HAL2    69  DPPC  H12R  8913   0.090000   1.008000
 8914       HAL2    69  DPPC  H12S  8914   0.090000   1.008000
 8915       CTL2    69  DPPC  C213  8915  -0.180000  12.011000
 8916       HAL2    69  DPPC  H13R  8916   0.090000   1.008000
 8917       HAL2    69  DPPC  H13S  8917   0.090000   1.008000
 8918       CTL2    69  DPPC  C214  8918  -0.180000  12.011000
 8919       HAL2    69  DPPC  H14R  8919   0.090000   1.008000
 8920       HAL2    69  DPPC  H14S  8920   0.090000   1.008000
 8921       CTL2    69  DPPC  C215  8921  -0.180000  12.011000
 8922       HAL2    69  DPPC  H15R  8922   0.090000   1.008000
 8923       HAL2    69  DPPC  H15S  8923   0.090000   1.008000
 8924       CTL3    69  DPPC  C216  8924  -0.270000  12.011000
 8925       HAL3    69  DPPC  H16R  8925   0.090000   1.008000
 8926       HAL3    69  DPPC  H16S  8926   0.090000   1.008000
 8927       HAL3    69  DPPC  H16T  8927   0.090000   1.008000
 8928       CTL2    69  DPPC   C33  8928  -0.180000  12.011000
 8929       HAL2    69  DPPC   H3X  8929   0.090000   1.008000
 8930       HAL2    69  DPPC   H3Y  8930   0.090000   1.008000
 8931       CTL2    69  DPPC   C34  8931  -0.180000  12.011000
 8932       HAL2    69  DPPC   H4X  8932   0.090000   1.008000
 8933       HAL2    69  DPPC   H4Y  8933   0.090000   1.008000
 8934       CTL2    69  DPPC   C35  8934  -0.180000  12.011000
 8935       HAL2    69  DPPC   H5X  8935   0.090000   1.008000
 8936       HAL2    69  DPPC   H5Y  8936   0.090000   1.008000
 8937       CTL2    69  DPPC   C36  8937  -0.180000  12.011000
 8938       HAL2    69  DPPC   H6X  8938   0.090000   1.008000
 8939       HAL2    69  DPPC   H6Y  8939   0.090000   1.008000
 8940       CTL2    69  DPPC   C37  8940  -0.180000  12.011000
 8941       HAL2    69  DPPC   H7X  8941   0.090000   1.008000
 8942       HAL2    69  DPPC   H7Y  8942   0.090000   1.008000
 8943       CTL2    69  DPPC   C38  8943  -0.180000  12.011000
 8944       HAL2    69  DPPC   H8X  8944   0.090000   1.008000
 8945       HAL2    69  DPPC   H8Y  8945   0.090000   1.008000
 8946       CTL2    69  DPPC   C39  8946  -0.180000  12.011000
 8947       HAL2    69  DPPC   H9X  8947   0.090000   1.008000
 8948       HAL2    69  DPPC   H9Y  8948   0.090000   1.008000
 8949       CTL2    69  DPPC  C310  8949  -0.180000  12.011000
 8950       HAL2    69  DPPC  H10X  8950   0.090000   1.008000
 8951       HAL2    69  DPPC  H10Y  8951   0.090000   1.008000
 8952       CTL2    69  DPPC  C311  8952  -0.180000  12.011000
 8953       HAL2    69  DPPC  H11X  8953   0.090000   1.008000
 8954       HAL2    69  DPPC  H11Y  8954   0.090000   1.008000
 8955       CTL2    69  DPPC  C312  8955  -0.180000  12.011000
 8956       HAL2    69  DPPC  H12X  8956   0.090000   1.008000
 8957       HAL2    69  DPPC  H12Y  8957   0.090000   1.008000
 8958       CTL2    69  DPPC  C313  8958  -0.180000  12.011000
 8959       HAL2    69  DPPC  H13X  8959   0.090000   1.008000
 8960       HAL2    69  DPPC  H13Y  8960   0.090000   1.008000
 8961       CTL2    69  DPPC  C314  8961  -0.180000  12.011000
 8962       HAL2    69  DPPC  H14X  8962   0.090000   1.008000
 8963       HAL2    69  DPPC  H14Y  8963   0.090000   1.008000
 8964       CTL2    69  DPPC  C315  8964  -0.180000  12.011000
 8965       HAL2    69  DPPC  H15X  8965   0.090000   1.008000
 8966       HAL2    69  DPPC  H15Y  8966   0.090000   1.008000
 8967       CTL3    69  DPPC  C316  8967  -0.270000  12.011000
 8968       HAL3    69  DPPC  H16X  8968   0.090000   1.008000
 8969       HAL3    69  DPPC  H16Y  8969   0.090000   1.008000
 8970       HAL3    69  DPPC  H16Z  8970   0.090000   1.008000
 8971        NTL    70  DPPC     N  8971  -0.600000  14.007000
 8972       CTL5    70  DPPC   C13  8972  -0.350000  12.011000
 8973         HL    70  DPPC  H13A  8973   0.250000   1.008000
 8974         HL    70  DPPC  H13B  8974   0.250000   1.008000
 8975         HL    70  DPPC  H13C  8975   0.250000   1.008000
 8976       CTL5    70  DPPC   C14  8976  -0.350000  12.011000
 8977         HL    70  DPPC  H14A  8977   0.250000   1.008000
 8978         HL    70  DPPC  H14B  8978   0.250000   1.008000
 8979         HL    70  DPPC  H14C  8979   0.250000   1.008000
 8980       CTL5    70  DPPC   C15  8980  -0.350000  12.011000
 8981         HL    70  DPPC  H15A  8981   0.250000   1.008000
 8982         HL    70  DPPC  H15B  8982   0.250000   1.008000
 8983         HL    70  DPPC  H15C  8983   0.250000   1.008000
 8984       CTL2    70  DPPC   C12  8984  -0.100000  12.011000
 8985         HL    70  DPPC  H12A  8985   0.250000   1.008000
 8986         HL    70  DPPC  H12B  8986   0.250000   1.008000
 8987       CTL2    70  DPPC   C11  8987  -0.080000  12.011000
 8988       HAL2    70  DPPC  H11A  8988   0.090000   1.008000
 8989       HAL2    70  DPPC  H11B  8989   0.090000   1.008000
 8990         PL    70  DPPC     P  8990   1.500000  30.974001
 8991        O2L    70  DPPC   O13  8991  -0.780000  15.999400
 8992        O2L    70  DPPC   O14  8992  -0.780000  15.999400
 8993       OSLP    70  DPPC   O11  8993  -0.570000  15.999400
 8994       OSLP    70  DPPC   O12  8994  -0.570000  15.999400
 8995       CTL2    70  DPPC    C1  8995  -0.080000  12.011000
 8996       HAL2    70  DPPC    HA  8996   0.090000   1.008000
 8997       HAL2    70  DPPC    HB  8997   0.090000   1.008000
 8998       CTL1    70  DPPC    C2  8998   0.170000  12.011000
 8999       HAL1    70  DPPC    HS  8999   0.090000   1.008000
 9000        OSL    70  DPPC   O21  9000  -0.490000  15.999400
 9001         CL    70  DPPC   C21  9001   0.900000  12.011000
 9002        OBL    70  DPPC   O22  9002  -0.630000  15.999400
 9003       CTL2    70  DPPC   C22  9003  -0.220000  12.011000
 9004       HAL2    70  DPPC   H2R  9004   0.090000   1.008000
 9005       HAL2    70  DPPC   H2S  9005   0.090000   1.008000
 9006       CTL2    70  DPPC    C3  9006   0.080000  12.011000
 9007       HAL2    70  DPPC    HX  9007   0.090000   1.008000
 9008       HAL2    70  DPPC    HY  9008   0.090000   1.008000
 9009        OSL    70  DPPC   O31  9009  -0.490000  15.999400
 9010         CL    70  DPPC   C31  9010   0.900000  12.011000
 9011        OBL    70  DPPC   O32  9011  -0.630000  15.999400
 9012       CTL2    70  DPPC   C32  9012  -0.220000  12.011000
 9013       HAL2    70  DPPC   H2X  9013   0.090000   1.008000
 9014       HAL2    70  DPPC   H2Y  9014   0.090000   1.008000
 9015       CTL2    70  DPPC   C23  9015  -0.180000  12.011000
 9016       HAL2    70  DPPC   H3R  9016   0.090000   1.008000
 9017       HAL2    70  DPPC   H3S  9017   0.090000   1.008000
 9018       CTL2    70  DPPC   C24  9018  -0.180000  12.011000
 9019       HAL2    70  DPPC   H4R  9019   0.090000   1.008000
 9020       HAL2    70  DPPC   H4S  9020   0.090000   1.008000
 9021       CTL2    70  DPPC   C25  9021  -0.180000  12.011000
 9022       HAL2    70  DPPC   H5R  9022   0.090000   1.008000
 9023       HAL2    70  DPPC   H5S  9023   0.090000   1.008000
 9024       CTL2    70  DPPC   C26  9024  -0.180000  12.011000
 9025       HAL2    70  DPPC   H6R  9025   0.090000   1.008000
 9026       HAL2    70  DPPC   H6S  9026   0.090000   1.008000
 9027       CTL2    70  DPPC   C27  9027  -0.180000  12.011000
 9028       HAL2    70  DPPC   H7R  9028   0.090000   1.008000
 9029       HAL2    70  DPPC   H7S  9029   0.090000   1.008000
 9030       CTL2    70  DPPC   C28  9030  -0.180000  12.011000
 9031       HAL2    70  DPPC   H8R  9031   0.090000   1.008000
 9032       HAL2    70  DPPC   H8S  9032   0.090000   1.008000
 9033       CTL2    70  DPPC   C29  9033  -0.180000  12.011000
 9034       HAL2    70  DPPC   H9R  9034   0.090000   1.008000
 9035       HAL2    70  DPPC   H9S  9035   0.090000   1.008000
 9036       CTL2    70  DPPC  C210  9036  -0.180000  12.011000
 9037       HAL2    70  DPPC  H10R  9037   0.090000   1.008000
 9038       HAL2    70  DPPC  H10S  9038   0.090000   1.008000
 9039       CTL2    70  DPPC  C211  9039  -0.180000  12.011000
 9040       HAL2    70  DPPC  H11R  9040   0.090000   1.008000
 9041       HAL2    70  DPPC  H11S  9041   0.090000   1.008000
 9042       CTL2    70  DPPC  C212  9042  -0.180000  12.011000
 9043       HAL2    70  DPPC  H12R  9043   0.090000   1.008000
 9044       HAL2    70  DPPC  H12S  9044   0.090000   1.008000
 9045       CTL2    70  DPPC  C213  9045  -0.180000  12.011000
 9046       HAL2    70  DPPC  H13R  9046   0.090000   1.008000
 9047       HAL2    70  DPPC  H13S  9047   0.090000   1.008000
 9048       CTL2    70  DPPC  C214  9048  -0.180000  12.011000
 9049       HAL2    70  DPPC  H14R  9049   0.090000   1.008000
 9050       HAL2    70  DPPC  H14S  9050   0.090000   1.008000
 9051       CTL2    70  DPPC  C215  9051  -0.180000  12.011000
 9052       HAL2    70  DPPC  H15R  9052   0.090000   1.008000
 9053       HAL2    70  DPPC  H15S  9053   0.090000   1.008000
 9054       CTL3    70  DPPC  C216  9054  -0.270000  12.011000
 9055       HAL3    70  DPPC  H16R  9055   0.090000   1.008000
 9056       HAL3    70  DPPC  H16S  9056   0.090000   1.008000
 9057       HAL3    70  DPPC  H16T  9057   0.090000   1.008000
 9058       CTL2    70  DPPC   C33  9058  -0.180000  12.011000
 9059       HAL2    70  DPPC   H3X  9059   0.090000   1.008000
 9060       HAL2    70  DPPC   H3Y  9060   0.090000   1.008000
 9061       CTL2    70  DPPC   C34  9061  -0.180000  12.011000
 9062       HAL2    70  DPPC   H4X  9062   0.090000   1.008000
 9063       HAL2    70  DPPC   H4Y  9063   0.090000   1.008000
 9064       CTL2    70  DPPC   C35  9064  -0.180000  12.011000
 9065       HAL2    70  DPPC   H5X  9065   0.090000   1.008000
 9066       HAL2    70  DPPC   H5Y  9066   0.090000   1.008000
 9067       CTL2    70  DPPC   C36  9067  -0.180000  12.011000
 9068       HAL2    70  DPPC   H6X  9068   0.090000   1.008000
 9069       HAL2    70  DPPC   H6Y  9069   0.090000   1.008000
 9070       CTL2    70  DPPC   C37  9070  -0.180000  12.011000
 9071       HAL2    70  DPPC   H7X  9071   0.090000   1.008000
 9072       HAL2    70  DPPC   H7Y  9072   0.090000   1.008000
 9073       CTL2    70  DPPC   C38  9073  -0.180000  12.011000
 9074       HAL2    70  DPPC   H8X  9074   0.090000   1.008000
 9075       HAL2    70  DPPC   H8Y  9075   0.090000   1.008000
 9076       CTL2    70  DPPC   C39  9076  -0.180000  12.011000
 9077       HAL2    70  DPPC   H9X  9077   0.090000   1.008000
 9078       HAL2    70  DPPC   H9Y  9078   0.090000   1.008000
 9079       CTL2    70  DPPC  C310  9079  -0.180000  12.011000
 9080       HAL2    70  DPPC  H10X  9080   0.090000   1.008000
 9081       HAL2    70  DPPC  H10Y  9081   0.090000   1.008000
 9082       CTL2    70  DPPC  C311  9082  -0.180000  12.011000
 9083       HAL2    70  DPPC  H11X  9083   0.090000   1.008000
 9084       HAL2    70  DPPC  H11Y  9084   0.090000   1.008000
 9085       CTL2    70  DPPC  C312  9085  -0.180000  12.011000
 9086       HAL2    70  DPPC  H12X  9086   0.090000   1.008000
 9087       HAL2    70  DPPC  H12Y  9087   0.090000   1.008000
 9088       CTL2    70  DPPC  C313  9088  -0.180000  12.011000
 9089       HAL2    70  DPPC  H13X  9089   0.090000   1.008000
 9090       HAL2    70  DPPC  H13Y  9090   0.090000   1.008000
 9091       CTL2    70  DPPC  C314  9091  -0.180000  12.011000
 9092       HAL2    70  DPPC  H14X  9092   0.090000   1.008000
 9093       HAL2    70  DPPC  H14Y  9093   0.090000   1.008000
 9094       CTL2    70  DPPC  C315  9094  -0.180000  12.011000
 9095       HAL2    70  DPPC  H15X  9095   0.090000   1.008000
 9096       HAL2    70  DPPC  H15Y  9096   0.090000   1.008000
 9097       CTL3    70  DPPC  C316  9097  -0.270000  12.011000
 9098       HAL3    70  DPPC  H16X  9098   0.090000   1.008000
 9099       HAL3    70  DPPC  H16Y  9099   0.090000   1.008000
 9100       HAL3    70  DPPC  H16Z  9100   0.090000   1.008000
 9101        NTL    71  DPPC     N  9101  -0.600000  14.007000
 9102       CTL5    71  DPPC   C13  9102  -0.350000  12.011000
 9103         HL    71  DPPC  H13A  9103   0.250000   1.008000
 9104         HL    71  DPPC  H13B  9104   0.250000   1.008000
 9105         HL    71  DPPC  H13C  9105   0.250000   1.008000
 9106       CTL5    71  DPPC   C14  9106  -0.350000  12.011000
 9107         HL    71  DPPC  H14A  9107   0.250000   1.008000
 9108         HL    71  DPPC  H14B  9108   0.250000   1.008000
 9109         HL    71  DPPC  H14C  9109   0.250000   1.008000
 9110       CTL5    71  DPPC   C15  9110  -0.350000  12.011000
 9111         HL    71  DPPC  H15A  9111   0.250000   1.008000
 9112         HL    71  DPPC  H15B  9112   0.250000   1.008000
 9113         HL    71  DPPC  H15C  9113   0.250000   1.008000
 9114       CTL2    71  DPPC   C12  9114  -0.100000  12.011000
 9115         HL    71  DPPC  H12A  9115   0.250000   1.008000
 9116         HL    71  DPPC  H12B  9116   0.250000   1.008000
 9117       CTL2    71  DPPC   C11  9117  -0.080000  12.011000
 9118       HAL2    71  DPPC  H11A  9118   0.090000   1.008000
 9119       HAL2    71  DPPC  H11B  9119   0.090000   1.008000
 9120         PL    71  DPPC     P  9120   1.500000  30.974001
 9121        O2L    71  DPPC   O13  9121  -0.780000  15.999400
 9122        O2L    71  DPPC   O14  9122  -0.780000  15.999400
 9123       OSLP    71  DPPC   O11  9123  -0.570000  15.999400
 9124       OSLP    71  DPPC   O12  9124  -0.570000  15.999400
 9125       CTL2    71  DPPC    C1  9125  -0.080000  12.011000
 9126       HAL2    71  DPPC    HA  9126   0.090000   1.008000
 9127       HAL2    71  DPPC    HB  9127   0.090000   1.008000
 9128       CTL1    71  DPPC    C2  9128   0.170000  12.011000
 9129       HAL1    71  DPPC    HS  9129   0.090000   1.008000
 9130        OSL    71  DPPC   O21  9130  -0.490000  15.999400
 9131         CL    71  DPPC   C21  9131   0.900000  12.011000
 9132        OBL    71  DPPC   O22  9132  -0.630000  15.999400
 9133       CTL2    71  DPPC   C22  9133  -0.220000  12.011000
 9134       HAL2    71  DPPC   H2R  9134   0.090000   1.008000
 9135       HAL2    71  DPPC   H2S  9135   0.090000   1.008000
 9136       CTL2    71  DPPC    C3  9136   0.080000  12.011000
 9137       HAL2    71  DPPC    HX  9137   0.090000   1.008000
 9138       HAL2    71  DPPC    HY  9138   0.090000   1.008000
 9139        OSL    71  DPPC   O31  9139  -0.490000  15.999400
 9140         CL    71  DPPC   C31  9140   0.900000  12.011000
 9141        OBL    71  DPPC   O32  9141  -0.630000  15.999400
 9142       CTL2    71  DPPC   C32  9142  -0.220000  12.011000
 9143       HAL2    71  DPPC   H2X  9143   0.090000   1.008000
 9144       HAL2    71  DPPC   H2Y  9144   0.090000   1.008000
 9145       CTL2    71  DPPC   C23  9145  -0.180000  12.011000
 9146       HAL2    71  DPPC   H3R  9146   0.090000   1.008000
 9147       HAL2    71  DPPC   H3S  9147   0.090000   1.008000
 9148       CTL2    71  DPPC   C24  9148  -0.180000  12.011000
 9149       HAL2    71  DPPC   H4R  9149   0.090000   1.008000
 9150       HAL2    71  DPPC   H4S  9150   0.090000   1.008000
 9151       CTL2    71  DPPC   C25  9151  -0.180000  12.011000
 9152       HAL2    71  DPPC   H5R  9152   0.090000   1.008000
 9153       HAL2    71  DPPC   H5S  9153   0.090000   1.008000
 9154       CTL2    71  DPPC   C26  9154  -0.180000  12.011000
 9155       HAL2    71  DPPC   H6R  9155   0.090000   1.008000
 9156       HAL2    71  DPPC   H6S  9156   0.090000   1.008000
 9157       CTL2    71  DPPC   C27  9157  -0.180000  12.011000
 9158       HAL2    71  DPPC   H7R  9158   0.090000   1.008000
 9159       HAL2    71  DPPC   H7S  9159   0.090000   1.008000
 9160       CTL2    71  DPPC   C28  9160  -0.180000  12.011000
 9161       HAL2    71  DPPC   H8R  9161   0.090000   1.008000
 9162       HAL2    71  DPPC   H8S  9162   0.090000   1.008000
 9163       CTL2    71  DPPC   C29  9163  -0.180000  12.011000
 9164       HAL2    71  DPPC   H9R  9164   0.090000   1.008000
 9165       HAL2    71  DPPC   H9S  9165   0.090000   1.008000
 9166       CTL2    71  DPPC  C210  9166  -0.180000  12.011000
 9167       HAL2    71  DPPC  H10R  9167   0.090000   1.008000
 9168       HAL2    71  DPPC  H10S  9168   0.090000   1.008000
 9169       CTL2    71  DPPC  C211  9169  -0.180000  12.011000
 9170       HAL2    71  DPPC  H11R  9170   0.090000   1.008000
 9171       HAL2    71  DPPC  H11S  9171   0.090000   1.008000
 9172       CTL2    71  DPPC  C212  9172  -0.180000  12.011000
 9173       HAL2    71  DPPC  H12R  9173   0.090000   1.008000
 9174       HAL2    71  DPPC  H12S  9174   0.090000   1.008000
 9175       CTL2    71  DPPC  C213  9175  -0.180000  12.011000
 9176       HAL2    71  DPPC  H13R  9176   0.090000   1.008000
 9177       HAL2    71  DPPC  H13S  9177   0.090000   1.008000
 9178       CTL2    71  DPPC  C214  9178  -0.180000  12.011000
 9179       HAL2    71  DPPC  H14R  9179   0.090000   1.008000
 9180       HAL2    71  DPPC  H14S  9180   0.090000   1.008000
 9181       CTL2    71  DPPC  C215  9181  -0.180000  12.011000
 9182       HAL2    71  DPPC  H15R  9182   0.090000   1.008000
 9183       HAL2    71  DPPC  H15S  9183   0.090000   1.008000
 9184       CTL3    71  DPPC  C216  9184  -0.270000  12.011000
 9185       HAL3    71  DPPC  H16R  9185   0.090000   1.008000
 9186       HAL3    71  DPPC  H16S  9186   0.090000   1.008000
 9187       HAL3    71  DPPC  H16T  9187   0.090000   1.008000
 9188       CTL2    71  DPPC   C33  9188  -0.180000  12.011000
 9189       HAL2    71  DPPC   H3X  9189   0.090000   1.008000
 9190       HAL2    71  DPPC   H3Y  9190   0.090000   1.008000
 9191       CTL2    71  DPPC   C34  9191  -0.180000  12.011000
 9192       HAL2    71  DPPC   H4X  9192   0.090000   1.008000
 9193       HAL2    71  DPPC   H4Y  9193   0.090000   1.008000
 9194       CTL2    71  DPPC   C35  9194  -0.180000  12.011000
 9195       HAL2    71  DPPC   H5X  9195   0.090000   1.008000
 9196       HAL2    71  DPPC   H5Y  9196   0.090000   1.008000
 9197       CTL2    71  DPPC   C36  9197  -0.180000  12.011000
 9198       HAL2    71  DPPC   H6X  9198   0.090000   1.008000
 9199       HAL2    71  DPPC   H6Y  9199   0.090000   1.008000
 9200       CTL2    71  DPPC   C37  9200  -0.180000  12.011000
 9201       HAL2    71  DPPC   H7X  9201   0.090000   1.008000
 9202       HAL2    71  DPPC   H7Y  9202   0.090000   1.008000
 9203       CTL2    71  DPPC   C38  9203  -0.180000  12.011000
 9204       HAL2    71  DPPC   H8X  9204   0.090000   1.008000
 9205       HAL2    71  DPPC   H8Y  9205   0.090000   1.008000
 9206       CTL2    71  DPPC   C39  9206  -0.180000  12.011000
 9207       HAL2    71  DPPC   H9X  9207   0.090000   1.008000
 9208       HAL2    71  DPPC   H9Y  9208   0.090000   1.008000
 9209       CTL2    71  DPPC  C310  9209  -0.180000  12.011000
 9210       HAL2    71  DPPC  H10X  9210   0.090000   1.008000
 9211       HAL2    71  DPPC  H10Y  9211   0.090000   1.008000
 9212       CTL2    71  DPPC  C311  9212  -0.180000  12.011000
 9213       HAL2    71  DPPC  H11X  9213   0.090000   1.008000
 9214       HAL2    71  DPPC  H11Y  9214   0.090000   1.008000
 9215       CTL2    71  DPPC  C312  9215  -0.180000  12.011000
 9216       HAL2    71  DPPC  H12X  9216   0.090000   1.008000
 9217       HAL2    71  DPPC  H12Y  9217   0.090000   1.008000
 9218       CTL2    71  DPPC  C313  9218  -0.180000  12.011000
 9219       HAL2    71  DPPC  H13X  9219   0.090000   1.008000
 9220       HAL2    71  DPPC  H13Y  9220   0.090000   1.008000
 9221       CTL2    71  DPPC  C314  9221  -0.180000  12.011000
 9222       HAL2    71  DPPC  H14X  9222   0.090000   1.008000
 9223       HAL2    71  DPPC  H14Y  9223   0.090000   1.008000
 9224       CTL2    71  DPPC  C315  9224  -0.180000  12.011000
 9225       HAL2    71  DPPC  H15X  9225   0.090000   1.008000
 9226       HAL2    71  DPPC  H15Y  9226   0.090000   1.008000
 9227       CTL3    71  DPPC  C316  9227  -0.270000  12.011000
 9228       HAL3    71  DPPC  H16X  9228   0.090000   1.008000
 9229       HAL3    71  DPPC  H16Y  9229   0.090000   1.008000
 9230       HAL3    71  DPPC  H16Z  9230   0.090000   1.008000
 9231        NTL    72  DPPC     N  9231  -0.600000  14.007000
 9232       CTL5    72  DPPC   C13  9232  -0.350000  12.011000
 9233         HL    72  DPPC  H13A  9233   0.250000   1.008000
 9234         HL    72  DPPC  H13B  9234   0.250000   1.008000
 9235         HL    72  DPPC  H13C  9235   0.250000   1.008000
 9236       CTL5    72  DPPC   C14  9236  -0.350000  12.011000
 9237         HL    72  DPPC  H14A  9237   0.250000   1.008000
 9238         HL    72  DPPC  H14B  9238   0.250000   1.008000
 9239         HL    72  DPPC  H14C  9239   0.250000   1.008000
 9240       CTL5    72  DPPC   C15  9240  -0.350000  12.011000
 9241         HL    72  DPPC  H15A  9241   0.250000   1.008000
 9242         HL    72  DPPC  H15B  9242   0.250000   1.008000
 9243         HL    72  DPPC  H15C  9243   0.250000   1.008000
 9244       CTL2    72  DPPC   C12  9244  -0.100000  12.011000
 9245         HL    72  DPPC  H12A  9245   0.250000   1.008000
 9246         HL    72  DPPC  H12B  9246   0.250000   1.008000
 9247       CTL2    72  DPPC   C11  9247  -0.080000  12.011000
 9248       HAL2    72  DPPC  H11A  9248   0.090000   1.008000
 9249       HAL2    72  DPPC  H11B  9249   0.090000   1.008000
 9250         PL    72  DPPC     P  9250   1.500000  30.974001
 9251        O2L    72  DPPC   O13  9251  -0.780000  15.999400
 9252        O2L    72  DPPC   O14  9252  -0.780000  15.999400
 9253       OSLP    72  DPPC   O11  9253  -0.570000  15.999400
 9254       OSLP    72  DPPC   O12  9254  -0.570000  15.999400
 9255       CTL2    72  DPPC    C1  9255  -0.080000  12.011000
 9256       HAL2    72  DPPC    HA  9256   0.090000   1.008000
 9257       HAL2    72  DPPC    HB  9257   0.090000   1.008000
 9258       CTL1    72  DPPC    C2  9258   0.170000  12.011000
 9259       HAL1    72  DPPC    HS  9259   0.090000   1.008000
 9260        OSL    72  DPPC   O21  9260  -0.490000  15.999400
 9261         CL    72  DPPC   C21  9261   0.900000  12.011000
 9262        OBL    72  DPPC   O22  9262  -0.630000  15.999400
 9263       CTL2    72  DPPC   C22  9263  -0.220000  12.011000
 9264       HAL2    72  DPPC   H2R  9264   0.090000   1.008000
 9265       HAL2    72  DPPC   H2S  9265   0.090000   1.008000
 9266       CTL2    72  DPPC    C3  9266   0.080000  12.011000
 9267       HAL2    72  DPPC    HX  9267   0.090000   1.008000
 9268       HAL2    72  DPPC    HY  9268   0.090000   1.008000
 9269        OSL    72  DPPC   O31  9269  -0.490000  15.999400
 9270         CL    72  DPPC   C31  9270   0.900000  12.011000
 9271        OBL    72  DPPC   O32  9271  -0.630000  15.999400
 9272       CTL2    72  DPPC   C32  9272  -0.220000  12.011000
 9273       HAL2    72  DPPC   H2X  9273   0.090000   1.008000
 9274       HAL2    72  DPPC   H2Y  9274   0.090000   1.008000
 9275       CTL2    72  DPPC   C23  9275  -0.180000  12.011000
 9276       HAL2    72  DPPC   H3R  9276   0.090000   1.008000
 9277       HAL2    72  DPPC   H3S  9277   0.090000   1.008000
 9278       CTL2    72  DPPC   C24  9278  -0.180000  12.011000
 9279       HAL2    72  DPPC   H4R  9279   0.090000   1.008000
 9280       HAL2    72  DPPC   H4S  9280   0.090000   1.008000
 9281       CTL2    72  DPPC   C25  9281  -0.180000  12.011000
 9282       HAL2    72  DPPC   H5R  9282   0.090000   1.008000
 9283       HAL2    72  DPPC   H5S  9283   0.090000   1.008000
 9284       CTL2    72  DPPC   C26  9284  -0.180000  12.011000
 9285       HAL2    72  DPPC   H6R  9285   0.090000   1.008000
 9286       HAL2    72  DPPC   H6S  9286   0.090000   1.008000
 9287       CTL2    72  DPPC   C27  9287  -0.180000  12.011000
 9288       HAL2    72  DPPC   H7R  9288   0.090000   1.008000
 9289       HAL2    72  DPPC   H7S  9289   0.090000   1.008000
 9290       CTL2    72  DPPC   C28  9290  -0.180000  12.011000
 9291       HAL2    72  DPPC   H8R  9291   0.090000   1.008000
 9292       HAL2    72  DPPC   H8S  9292   0.090000   1.008000
 9293       CTL2    72  DPPC   C29  9293  -0.180000  12.011000
 9294       HAL2    72  DPPC   H9R  9294   0.090000   1.008000
 9295       HAL2    72  DPPC   H9S  9295   0.090000   1.008000
 9296       CTL2    72  DPPC  C210  9296  -0.180000  12.011000
 9297       HAL2    72  DPPC  H10R  9297   0.090000   1.008000
 9298       HAL2    72  DPPC  H10S  9298   0.090000   1.008000
 9299       CTL2    72  DPPC  C211  9299  -0.180000  12.011000
 9300       HAL2    72  DPPC  H11R  9300   0.090000   1.008000
 9301       HAL2    72  DPPC  H11S  9301   0.090000   1.008000
 9302       CTL2    72  DPPC  C212  9302  -0.180000  12.011000
 9303       HAL2    72  DPPC  H12R  9303   0.090000   1.008000
 9304       HAL2    72  DPPC  H12S  9304   0.090000   1.008000
 9305       CTL2    72  DPPC  C213  9305  -0.180000  12.011000
 9306       HAL2    72  DPPC  H13R  9306   0.090000   1.008000
 9307       HAL2    72  DPPC  H13S  9307   0.090000   1.008000
 9308       CTL2    72  DPPC  C214  9308  -0.180000  12.011000
 9309       HAL2    72  DPPC  H14R  9309   0.090000   1.008000
 9310       HAL2    72  DPPC  H14S  9310   0.090000   1.008000
 9311       CTL2    72  DPPC  C215  9311  -0.180000  12.011000
 9312       HAL2    72  DPPC  H15R  9312   0.090000   1.008000
 9313       HAL2    72  DPPC  H15S  9313   0.090000   1.008000
 9314       CTL3    72  DPPC  C216  9314  -0.270000  12.011000
 9315       HAL3    72  DPPC  H16R  9315   0.090000   1.008000
 9316       HAL3    72  DPPC  H16S  9316   0.090000   1.008000
 9317       HAL3    72  DPPC  H16T  9317   0.090000   1.008000
 9318       CTL2    72  DPPC   C33  9318  -0.180000  12.011000
 9319       HAL2    72  DPPC   H3X  9319   0.090000   1.008000
 9320       HAL2    72  DPPC   H3Y  9320   0.090000   1.008000
 9321       CTL2    72  DPPC   C34  9321  -0.180000  12.011000
 9322       HAL2    72  DPPC   H4X  9322   0.090000   1.008000
 9323       HAL2    72  DPPC   H4Y  9323   0.090000   1.008000
 9324       CTL2    72  DPPC   C35  9324  -0.180000  12.011000
 9325       HAL2    72  DPPC   H5X  9325   0.090000   1.008000
 9326       HAL2    72  DPPC   H5Y  9326   0.090000   1.008000
 9327       CTL2    72  DPPC   C36  9327  -0.180000  12.011000
 9328       HAL2    72  DPPC   H6X  9328   0.090000   1.008000
 9329       HAL2    72  DPPC   H6Y  9329   0.090000   1.008000
 9330       CTL2    72  DPPC   C37  9330  -0.180000  12.011000
 9331       HAL2    72  DPPC   H7X  9331   0.090000   1.008000
 9332       HAL2    72  DPPC   H7Y  9332   0.090000   1.008000
 9333       CTL2    72  DPPC   C38  9333  -0.180000  12.011000
 9334       HAL2    72  DPPC   H8X  9334   0.090000   1.008000
 9335       HAL2    72  DPPC   H8Y  9335   0.090000   1.008000
 9336       CTL2    72  DPPC   C39  9336  -0.180000  12.011000
 9337       HAL2    72  DPPC   H9X  9337   0.090000   1.008000
 9338       HAL2    72  DPPC   H9Y  9338   0.090000   1.008000
 9339       CTL2    72  DPPC  C310  9339  -0.180000  12.011000
 9340       HAL2    72  DPPC  H10X  9340   0.090000   1.008000
 9341       HAL2    72  DPPC  H10Y  9341   0.090000   1.008000
 9342       CTL2    72  DPPC  C311  9342  -0.180000  12.011000
 9343       HAL2    72  DPPC  H11X  9343   0.090000   1.008000
 9344       HAL2    72  DPPC  H11Y  9344   0.090000   1.008000
 9345       CTL2    72  DPPC  C312  9345  -0.180000  12.011000
 9346       HAL2    72  DPPC  H12X  9346   0.090000   1.008000
 9347       HAL2    72  DPPC  H12Y  9347   0.090000   1.008000
 9348       CTL2    72  DPPC  C313  9348  -0.180000  12.011000
 9349       HAL2    72  DPPC  H13X  9349   0.090000   1.008000
 9350       HAL2    72  DPPC  H13Y  9350   0.090000   1.008000
 9351       CTL2    72  DPPC  C314  9351  -0.180000  12.011000
 9352       HAL2    72  DPPC  H14X  9352   0.090000   1.008000
 9353       HAL2    72  DPPC  H14Y  9353   0.090000   1.008000
 9354       CTL2    72  DPPC  C315  9354  -0.180000  12.011000
 9355       HAL2    72  DPPC  H15X  9355   0.090000   1.008000
 9356       HAL2    72  DPPC  H15Y  9356   0.090000   1.008000
 9357       CTL3    72  DPPC  C316  9357  -0.270000  12.011000
 9358       HAL3    72  DPPC  H16X  9358   0.090000   1.008000
 9359       HAL3    72  DPPC  H16Y  9359   0.090000   1.008000
 9360       HAL3    72  DPPC  H16Z  9360   0.090000   1.008000
 9361        NTL    73  DPPC     N  9361  -0.600000  14.007000
 9362       CTL5    73  DPPC   C13  9362  -0.350000  12.011000
 9363         HL    73  DPPC  H13A  9363   0.250000   1.008000
 9364         HL    73  DPPC  H13B  9364   0.250000   1.008000
 9365         HL    73  DPPC  H13C  9365   0.250000   1.008000
 9366       CTL5    73  DPPC   C14  9366  -0.350000  12.011000
 9367         HL    73  DPPC  H14A  9367   0.250000   1.008000
 9368         HL    73  DPPC  H14B  9368   0.250000   1.008000
 9369         HL    73  DPPC  H14C  9369   0.250000   1.008000
 9370       CTL5    73  DPPC   C15  9370  -0.350000  12.011000
 9371         HL    73  DPPC  H15A  9371   0.250000   1.008000
 9372         HL    73  DPPC  H15B  9372   0.250000   1.008000
 9373         HL    73  DPPC  H15C  9373   0.250000   1.008000
 9374       CTL2    73  DPPC   C12  9374  -0.100000  12.011000
 9375         HL    73  DPPC  H12A  9375   0.250000   1.008000
 9376         HL    73  DPPC  H12B  9376   0.250000   1.008000
 9377       CTL2    73  DPPC   C11  9377  -0.080000  12.011000
 9378       HAL2    73  DPPC  H11A  9378   0.090000   1.008000
 9379       HAL2    73  DPPC  H11B  9379   0.090000   1.008000
 9380         PL    73  DPPC     P  9380   1.500000  30.974001
 9381        O2L    73  DPPC   O13  9381  -0.780000  15.999400
 9382        O2L    73  DPPC   O14  9382  -0.780000  15.999400
 9383       OSLP    73  DPPC   O11  9383  -0.570000  15.999400
 9384       OSLP    73  DPPC   O12  9384  -0.570000  15.999400
 9385       CTL2    73  DPPC    C1  9385  -0.080000  12.011000
 9386       HAL2    73  DPPC    HA  9386   0.090000   1.008000
 9387       HAL2    73  DPPC    HB  9387   0.090000   1.008000
 9388       CTL1    73  DPPC    C2  9388   0.170000  12.011000
 9389       HAL1    73  DPPC    HS  9389   0.090000   1.008000
 9390        OSL    73  DPPC   O21  9390  -0.490000  15.999400
 9391         CL    73  DPPC   C21  9391   0.900000  12.011000
 9392        OBL    73  DPPC   O22  9392  -0.630000  15.999400
 9393       CTL2    73  DPPC   C22  9393  -0.220000  12.011000
 9394       HAL2    73  DPPC   H2R  9394   0.090000   1.008000
 9395       HAL2    73  DPPC   H2S  9395   0.090000   1.008000
 9396       CTL2    73  DPPC    C3  9396   0.080000  12.011000
 9397       HAL2    73  DPPC    HX  9397   0.090000   1.008000
 9398       HAL2    73  DPPC    HY  9398   0.090000   1.008000
 9399        OSL    73  DPPC   O31  9399  -0.490000  15.999400
 9400         CL    73  DPPC   C31  9400   0.900000  12.011000
 9401        OBL    73  DPPC   O32  9401  -0.630000  15.999400
 9402       CTL2    73  DPPC   C32  9402  -0.220000  12.011000
 9403       HAL2    73  DPPC   H2X  9403   0.090000   1.008000
 9404       HAL2    73  DPPC   H2Y  9404   0.090000   1.008000
 9405       CTL2    73  DPPC   C23  9405  -0.180000  12.011000
 9406       HAL2    73  DPPC   H3R  9406   0.090000   1.008000
 9407       HAL2    73  DPPC   H3S  9407   0.090000   1.008000
 9408       CTL2    73  DPPC   C24  9408  -0.180000  12.011000
 9409       HAL2    73  DPPC   H4R  9409   0.090000   1.008000
 9410       HAL2    73  DPPC   H4S  9410   0.090000   1.008000
 9411       CTL2    73  DPPC   C25  9411  -0.180000  12.011000
 9412       HAL2    73  DPPC   H5R  9412   0.090000   1.008000
 9413       HAL2    73  DPPC   H5S  9413   0.090000   1.008000
 9414       CTL2    73  DPPC   C26  9414  -0.180000  12.011000
 9415       HAL2    73  DPPC   H6R  9415   0.090000   1.008000
 9416       HAL2    73  DPPC   H6S  9416   0.090000   1.008000
 9417       CTL2    73  DPPC   C27  9417  -0.180000  12.011000
 9418       HAL2    73  DPPC   H7R  9418   0.090000   1.008000
 9419       HAL2    73  DPPC   H7S  9419   0.090000   1.008000
 9420       CTL2    73  DPPC   C28  9420  -0.180000  12.011000
 9421       HAL2    73  DPPC   H8R  9421   0.090000   1.008000
 9422       HAL2    73  DPPC   H8S  9422   0.090000   1.008000
 9423       CTL2    73  DPPC   C29  9423  -0.180000  12.011000
 9424       HAL2    73  DPPC   H9R  9424   0.090000   1.008000
 9425       HAL2    73  DPPC   H9S  9425   0.090000   1.008000
 9426       CTL2    73  DPPC  C210  9426  -0.180000  12.011000
 9427       HAL2    73  DPPC  H10R  9427   0.090000   1.008000
 9428       HAL2    73  DPPC  H10S  9428   0.090000   1.008000
 9429       CTL2    73  DPPC  C211  9429  -0.180000  12.011000
 9430       HAL2    73  DPPC  H11R  9430   0.090000   1.008000
 9431       HAL2    73  DPPC  H11S  9431   0.090000   1.008000
 9432       CTL2    73  DPPC  C212  9432  -0.180000  12.011000
 9433       HAL2    73  DPPC  H12R  9433   0.090000   1.008000
 9434       HAL2    73  DPPC  H12S  9434   0.090000   1.008000
 9435       CTL2    73  DPPC  C213  9435  -0.180000  12.011000
 9436       HAL2    73  DPPC  H13R  9436   0.090000   1.008000
 9437       HAL2    73  DPPC  H13S  9437   0.090000   1.008000
 9438       CTL2    73  DPPC  C214  9438  -0.180000  12.011000
 9439       HAL2    73  DPPC  H14R  9439   0.090000   1.008000
 9440       HAL2    73  DPPC  H14S  9440   0.090000   1.008000
 9441       CTL2    73  DPPC  C215  9441  -0.180000  12.011000
 9442       HAL2    73  DPPC  H15R  9442   0.090000   1.008000
 9443       HAL2    73  DPPC  H15S  9443   0.090000   1.008000
 9444       CTL3    73  DPPC  C216  9444  -0.270000  12.011000
 9445       HAL3    73  DPPC  H16R  9445   0.090000   1.008000
 9446       HAL3    73  DPPC  H16S  9446   0.090000   1.008000
 9447       HAL3    73  DPPC  H16T  9447   0.090000   1.008000
 9448       CTL2    73  DPPC   C33  9448  -0.180000  12.011000
 9449       HAL2    73  DPPC   H3X  9449   0.090000   1.008000
 9450       HAL2    73  DPPC   H3Y  9450   0.090000   1.008000
 9451       CTL2    73  DPPC   C34  9451  -0.180000  12.011000
 9452       HAL2    73  DPPC   H4X  9452   0.090000   1.008000
 9453       HAL2    73  DPPC   H4Y  9453   0.090000   1.008000
 9454       CTL2    73  DPPC   C35  9454  -0.180000  12.011000
 9455       HAL2    73  DPPC   H5X  9455   0.090000   1.008000
 9456       HAL2    73  DPPC   H5Y  9456   0.090000   1.008000
 9457       CTL2    73  DPPC   C36  9457  -0.180000  12.011000
 9458       HAL2    73  DPPC   H6X  9458   0.090000   1.008000
 9459       HAL2    73  DPPC   H6Y  9459   0.090000   1.008000
 9460       CTL2    73  DPPC   C37  9460  -0.180000  12.011000
 9461       HAL2    73  DPPC   H7X  9461   0.090000   1.008000
 9462       HAL2    73  DPPC   H7Y  9462   0.090000   1.008000
 9463       CTL2    73  DPPC   C38  9463  -0.180000  12.011000
 9464       HAL2    73  DPPC   H8X  9464   0.090000   1.008000
 9465       HAL2    73  DPPC   H8Y  9465   0.090000   1.008000
 9466       CTL2    73  DPPC   C39  9466  -0.180000  12.011000
 9467       HAL2    73  DPPC   H9X  9467   0.090000   1.008000
 9468       HAL2    73  DPPC   H9Y  9468   0.090000   1.008000
 9469       CTL2    73  DPPC  C310  9469  -0.180000  12.011000
 9470       HAL2    73  DPPC  H10X  9470   0.090000   1.008000
 9471       HAL2    73  DPPC  H10Y  9471   0.090000   1.008000
 9472       CTL2    73  DPPC  C311  9472  -0.180000  12.011000
 9473       HAL2    73  DPPC  H11X  9473   0.090000   1.008000
 9474       HAL2    73  DPPC  H11Y  9474   0.090000   1.008000
 9475       CTL2    73  DPPC  C312  9475  -0.180000  12.011000
 9476       HAL2    73  DPPC  H12X  9476   0.090000   1.008000
 9477       HAL2    73  DPPC  H12Y  9477   0.090000   1.008000
 9478       CTL2    73  DPPC  C313  9478  -0.180000  12.011000
 9479       HAL2    73  DPPC  H13X  9479   0.090000   1.008000
 9480       HAL2    73  DPPC  H13Y  9480   0.090000   1.008000
 9481       CTL2    73  DPPC  C314  9481  -0.180000  12.011000
 9482       HAL2    73  DPPC  H14X  9482   0.090000   1.008000
 9483       HAL2    73  DPPC  H14Y  9483   0.090000   1.008000
 9484       CTL2    73  DPPC  C315  9484  -0.180000  12.011000
 9485       HAL2    73  DPPC  H15X  9485   0.090000   1.008000
 9486       HAL2    73  DPPC  H15Y  9486   0.090000   1.008000
 9487       CTL3    73  DPPC  C316  9487  -0.270000  12.011000
 9488       HAL3    73  DPPC  H16X  9488   0.090000   1.008000
 9489       HAL3    73  DPPC  H16Y  9489   0.090000   1.008000
 9490       HAL3    73  DPPC  H16Z  9490   0.090000   1.008000
 9491        NTL    74  DPPC     N  9491  -0.600000  14.007000
 9492       CTL5    74  DPPC   C13  9492  -0.350000  12.011000
 9493         HL    74  DPPC  H13A  9493   0.250000   1.008000
 9494         HL    74  DPPC  H13B  9494   0.250000   1.008000
 9495         HL    74  DPPC  H13C  9495   0.250000   1.008000
 9496       CTL5    74  DPPC   C14  9496  -0.350000  12.011000
 9497         HL    74  DPPC  H14A  9497   0.250000   1.008000
 9498         HL    74  DPPC  H14B  9498   0.250000   1.008000
 9499         HL    74  DPPC  H14C  9499   0.250000   1.008000
 9500       CTL5    74  DPPC   C15  9500  -0.350000  12.011000
 9501         HL    74  DPPC  H15A  9501   0.250000   1.008000
 9502         HL    74  DPPC  H15B  9502   0.250000   1.008000
 9503         HL    74  DPPC  H15C  9503   0.250000   1.008000
 9504       CTL2    74  DPPC   C12  9504  -0.100000  12.011000
 9505         HL    74  DPPC  H12A  9505   0.250000   1.008000
 9506         HL    74  DPPC  H12B  9506   0.250000   1.008000
 9507       CTL2    74  DPPC   C11  9507  -0.080000  12.011000
 9508       HAL2    74  DPPC  H11A  9508   0.090000   1.008000
 9509       HAL2    74  DPPC  H11B  9509   0.090000   1.008000
 9510         PL    74  DPPC     P  9510   1.500000  30.974001
 9511        O2L    74  DPPC   O13  9511  -0.780000  15.999400
 9512        O2L    74  DPPC   O14  9512  -0.780000  15.999400
 9513       OSLP    74  DPPC   O11  9513  -0.570000  15.999400
 9514       OSLP    74  DPPC   O12  9514  -0.570000  15.999400
 9515       CTL2    74  DPPC    C1  9515  -0.080000  12.011000
 9516       HAL2    74  DPPC    HA  9516   0.090000   1.008000
 9517       HAL2    74  DPPC    HB  9517   0.090000   1.008000
 9518       CTL1    74  DPPC    C2  9518   0.170000  12.011000
 9519       HAL1    74  DPPC    HS  9519   0.090000   1.008000
 9520        OSL    74  DPPC   O21  9520  -0.490000  15.999400
 9521         CL    74  DPPC   C21  9521   0.900000  12.011000
 9522        OBL    74  DPPC   O22  9522  -0.630000  15.999400
 9523       CTL2    74  DPPC   C22  9523  -0.220000  12.011000
 9524       HAL2    74  DPPC   H2R  9524   0.090000   1.008000
 9525       HAL2    74  DPPC   H2S  9525   0.090000   1.008000
 9526       CTL2    74  DPPC    C3  9526   0.080000  12.011000
 9527       HAL2    74  DPPC    HX  9527   0.090000   1.008000
 9528       HAL2    74  DPPC    HY  9528   0.090000   1.008000
 9529        OSL    74  DPPC   O31  9529  -0.490000  15.999400
 9530         CL    74  DPPC   C31  9530   0.900000  12.011000
 9531        OBL    74  DPPC   O32  9531  -0.630000  15.999400
 9532       CTL2    74  DPPC   C32  9532  -0.220000  12.011000
 9533       HAL2    74  DPPC   H2X  9533   0.090000   1.008000
 9534       HAL2    74  DPPC   H2Y  9534   0.090000   1.008000
 9535       CTL2    74  DPPC   C23  9535  -0.180000  12.011000
 9536       HAL2    74  DPPC   H3R  9536   0.090000   1.008000
 9537       HAL2    74  DPPC   H3S  9537   0.090000   1.008000
 9538       CTL2    74  DPPC   C24  9538  -0.180000  12.011000
 9539       HAL2    74  DPPC   H4R  9539   0.090000   1.008000
 9540       HAL2    74  DPPC   H4S  9540   0.090000   1.008000
 9541       CTL2    74  DPPC   C25  9541  -0.180000  12.011000
 9542       HAL2    74  DPPC   H5R  9542   0.090000   1.008000
 9543       HAL2    74  DPPC   H5S  9543   0.090000   1.008000
 9544       CTL2    74  DPPC   C26  9544  -0.180000  12.011000
 9545       HAL2    74  DPPC   H6R  9545   0.090000   1.008000
 9546       HAL2    74  DPPC   H6S  9546   0.090000   1.008000
 9547       CTL2    74  DPPC   C27  9547  -0.180000  12.011000
 9548       HAL2    74  DPPC   H7R  9548   0.090000   1.008000
 9549       HAL2    74  DPPC   H7S  9549   0.090000   1.008000
 9550       CTL2    74  DPPC   C28  9550  -0.180000  12.011000
 9551       HAL2    74  DPPC   H8R  9551   0.090000   1.008000
 9552       HAL2    74  DPPC   H8S  9552   0.090000   1.008000
 9553       CTL2    74  DPPC   C29  9553  -0.180000  12.011000
 9554       HAL2    74  DPPC   H9R  9554   0.090000   1.008000
 9555       HAL2    74  DPPC   H9S  9555   0.090000   1.008000
 9556       CTL2    74  DPPC  C210  9556  -0.180000  12.011000
 9557       HAL2    74  DPPC  H10R  9557   0.090000   1.008000
 9558       HAL2    74  DPPC  H10S  9558   0.090000   1.008000
 9559       CTL2    74  DPPC  C211  9559  -0.180000  12.011000
 9560       HAL2    74  DPPC  H11R  9560   0.090000   1.008000
 9561       HAL2    74  DPPC  H11S  9561   0.090000   1.008000
 9562       CTL2    74  DPPC  C212  9562  -0.180000  12.011000
 9563       HAL2    74  DPPC  H12R  9563   0.090000   1.008000
 9564       HAL2    74  DPPC  H12S  9564   0.090000   1.008000
 9565       CTL2    74  DPPC  C213  9565  -0.180000  12.011000
 9566       HAL2    74  DPPC  H13R  9566   0.090000   1.008000
 9567       HAL2    74  DPPC  H13S  9567   0.090000   1.008000
 9568       CTL2    74  DPPC  C214  9568  -0.180000  12.011000
 9569       HAL2    74  DPPC  H14R  9569   0.090000   1.008000
 9570       HAL2    74  DPPC  H14S  9570   0.090000   1.008000
 9571       CTL2    74  DPPC  C215  9571  -0.180000  12.011000
 9572       HAL2    74  DPPC  H15R  9572   0.090000   1.008000
 9573       HAL2    74  DPPC  H15S  9573   0.090000   1.008000
 9574       CTL3    74  DPPC  C216  9574  -0.270000  12.011000
 9575       HAL3    74  DPPC  H16R  9575   0.090000   1.008000
 9576       HAL3    74  DPPC  H16S  9576   0.090000   1.008000
 9577       HAL3    74  DPPC  H16T  9577   0.090000   1.008000
 9578       CTL2    74  DPPC   C33  9578  -0.180000  12.011000
 9579       HAL2    74  DPPC   H3X  9579   0.090000   1.008000
 9580       HAL2    74  DPPC   H3Y  9580   0.090000   1.008000
 9581       CTL2    74  DPPC   C34  9581  -0.180000  12.011000
 9582       HAL2    74  DPPC   H4X  9582   0.090000   1.008000
 9583       HAL2    74  DPPC   H4Y  9583   0.090000   1.008000
 9584       CTL2    74  DPPC   C35  9584  -0.180000  12.011000
 9585       HAL2    74  DPPC   H5X  9585   0.090000   1.008000
 9586       HAL2    74  DPPC   H5Y  9586   0.090000   1.008000
 9587       CTL2    74  DPPC   C36  9587  -0.180000  12.011000
 9588       HAL2    74  DPPC   H6X  9588   0.090000   1.008000
 9589       HAL2    74  DPPC   H6Y  9589   0.090000   1.008000
 9590       CTL2    74  DPPC   C37  9590  -0.180000  12.011000
 9591       HAL2    74  DPPC   H7X  9591   0.090000   1.008000
 9592       HAL2    74  DPPC   H7Y  9592   0.090000   1.008000
 9593       CTL2    74  DPPC   C38  9593  -0.180000  12.011000
 9594       HAL2    74  DPPC   H8X  9594   0.090000   1.008000
 9595       HAL2    74  DPPC   H8Y  9595   0.090000   1.008000
 9596       CTL2    74  DPPC   C39  9596  -0.180000  12.011000
 9597       HAL2    74  DPPC   H9X  9597   0.090000   1.008000
 9598       HAL2    74  DPPC   H9Y  9598   0.090000   1.008000
 9599       CTL2    74  DPPC  C310  9599  -0.180000  12.011000
 9600       HAL2    74  DPPC  H10X  9600   0.090000   1.008000
 9601       HAL2    74  DPPC  H10Y  9601   0.090000   1.008000
 9602       CTL2    74  DPPC  C311  9602  -0.180000  12.011000
 9603       HAL2    74  DPPC  H11X  9603   0.090000   1.008000
 9604       HAL2    74  DPPC  H11Y  9604   0.090000   1.008000
 9605       CTL2    74  DPPC  C312  9605  -0.180000  12.011000
 9606       HAL2    74  DPPC  H12X  9606   0.090000   1.008000
 9607       HAL2    74  DPPC  H12Y  9607   0.090000   1.008000
 9608       CTL2    74  DPPC  C313  9608  -0.180000  12.011000
 9609       HAL2    74  DPPC  H13X  9609   0.090000   1.008000
 9610       HAL2    74  DPPC  H13Y  9610   0.090000   1.008000
 9611       CTL2    74  DPPC  C314  9611  -0.180000  12.011000
 9612       HAL2    74  DPPC  H14X  9612   0.090000   1.008000
 9613       HAL2    74  DPPC  H14Y  9613   0.090000   1.008000
 9614       CTL2    74  DPPC  C315  9614  -0.180000  12.011000
 9615       HAL2    74  DPPC  H15X  9615   0.090000   1.008000
 9616       HAL2    74  DPPC  H15Y  9616   0.090000   1.008000
 9617       CTL3    74  DPPC  C316  9617  -0.270000  12.011000
 9618       HAL3    74  DPPC  H16X  9618   0.090000   1.008000
 9619       HAL3    74  DPPC  H16Y  9619   0.090000   1.008000
 9620       HAL3    74  DPPC  H16Z  9620   0.090000   1.008000
 9621        NTL    75  DPPC     N  9621  -0.600000  14.007000
 9622       CTL5    75  DPPC   C13  9622  -0.350000  12.011000
 9623         HL    75  DPPC  H13A  9623   0.250000   1.008000
 9624         HL    75  DPPC  H13B  9624   0.250000   1.008000
 9625         HL    75  DPPC  H13C  9625   0.250000   1.008000
 9626       CTL5    75  DPPC   C14  9626  -0.350000  12.011000
 9627         HL    75  DPPC  H14A  9627   0.250000   1.008000
 9628         HL    75  DPPC  H14B  9628   0.250000   1.008000
 9629         HL    75  DPPC  H14C  9629   0.250000   1.008000
 9630       CTL5    75  DPPC   C15  9630  -0.350000  12.011000
 9631         HL    75  DPPC  H15A  9631   0.250000   1.008000
 9632         HL    75  DPPC  H15B  9632   0.250000   1.008000
 9633         HL    75  DPPC  H15C  9633   0.250000   1.008000
 9634       CTL2    75  DPPC   C12  9634  -0.100000  12.011000
 9635         HL    75  DPPC  H12A  9635   0.250000   1.008000
 9636         HL    75  DPPC  H12B  9636   0.250000   1.008000
 9637       CTL2    75  DPPC   C11  9637  -0.080000  12.011000
 9638       HAL2    75  DPPC  H11A  9638   0.090000   1.008000
 9639       HAL2    75  DPPC  H11B  9639   0.090000   1.008000
 9640         PL    75  DPPC     P  9640   1.500000  30.974001
 9641        O2L    75  DPPC   O13  9641  -0.780000  15.999400
 9642        O2L    75  DPPC   O14  9642  -0.780000  15.999400
 9643       OSLP    75  DPPC   O11  9643  -0.570000  15.999400
 9644       OSLP    75  DPPC   O12  9644  -0.570000  15.999400
 9645       CTL2    75  DPPC    C1  9645  -0.080000  12.011000
 9646       HAL2    75  DPPC    HA  9646   0.090000   1.008000
 9647       HAL2    75  DPPC    HB  9647   0.090000   1.008000
 9648       CTL1    75  DPPC    C2  9648   0.170000  12.011000
 9649       HAL1    75  DPPC    HS  9649   0.090000   1.008000
 9650        OSL    75  DPPC   O21  9650  -0.490000  15.999400
 9651         CL    75  DPPC   C21  9651   0.900000  12.011000
 9652        OBL    75  DPPC   O22  9652  -0.630000  15.999400
 9653       CTL2    75  DPPC   C22  9653  -0.220000  12.011000
 9654       HAL2    75  DPPC   H2R  9654   0.090000   1.008000
 9655       HAL2    75  DPPC   H2S  9655   0.090000   1.008000
 9656       CTL2    75  DPPC    C3  9656   0.080000  12.011000
 9657       HAL2    75  DPPC    HX  9657   0.090000   1.008000
 9658       HAL2    75  DPPC    HY  9658   0.090000   1.008000
 9659        OSL    75  DPPC   O31  9659  -0.490000  15.999400
 9660         CL    75  DPPC   C31  9660   0.900000  12.011000
 9661        OBL    75  DPPC   O32  9661  -0.630000  15.999400
 9662       CTL2    75  DPPC   C32  9662  -0.220000  12.011000
 9663       HAL2    75  DPPC   H2X  9663   0.090000   1.008000
 9664       HAL2    75  DPPC   H2Y  9664   0.090000   1.008000
 9665       CTL2    75  DPPC   C23  9665  -0.180000  12.011000
 9666       HAL2    75  DPPC   H3R  9666   0.090000   1.008000
 9667       HAL2    75  DPPC   H3S  9667   0.090000   1.008000
 9668       CTL2    75  DPPC   C24  9668  -0.180000  12.011000
 9669       HAL2    75  DPPC   H4R  9669   0.090000   1.008000
 9670       HAL2    75  DPPC   H4S  9670   0.090000   1.008000
 9671       CTL2    75  DPPC   C25  9671  -0.180000  12.011000
 9672       HAL2    75  DPPC   H5R  9672   0.090000   1.008000
 9673       HAL2    75  DPPC   H5S  9673   0.090000   1.008000
 9674       CTL2    75  DPPC   C26  9674  -0.180000  12.011000
 9675       HAL2    75  DPPC   H6R  9675   0.090000   1.008000
 9676       HAL2    75  DPPC   H6S  9676   0.090000   1.008000
 9677       CTL2    75  DPPC   C27  9677  -0.180000  12.011000
 9678       HAL2    75  DPPC   H7R  9678   0.090000   1.008000
 9679       HAL2    75  DPPC   H7S  9679   0.090000   1.008000
 9680       CTL2    75  DPPC   C28  9680  -0.180000  12.011000
 9681       HAL2    75  DPPC   H8R  9681   0.090000   1.008000
 9682       HAL2    75  DPPC   H8S  9682   0.090000   1.008000
 9683       CTL2    75  DPPC   C29  9683  -0.180000  12.011000
 9684       HAL2    75  DPPC   H9R  9684   0.090000   1.008000
 9685       HAL2    75  DPPC   H9S  9685   0.090000   1.008000
 9686       CTL2    75  DPPC  C210  9686  -0.180000  12.011000
 9687       HAL2    75  DPPC  H10R  9687   0.090000   1.008000
 9688       HAL2    75  DPPC  H10S  9688   0.090000   1.008000
 9689       CTL2    75  DPPC  C211  9689  -0.180000  12.011000
 9690       HAL2    75  DPPC  H11R  9690   0.090000   1.008000
 9691       HAL2    75  DPPC  H11S  9691   0.090000   1.008000
 9692       CTL2    75  DPPC  C212  9692  -0.180000  12.011000
 9693       HAL2    75  DPPC  H12R  9693   0.090000   1.008000
 9694       HAL2    75  DPPC  H12S  9694   0.090000   1.008000
 9695       CTL2    75  DPPC  C213  9695  -0.180000  12.011000
 9696       HAL2    75  DPPC  H13R  9696   0.090000   1.008000
 9697       HAL2    75  DPPC  H13S  9697   0.090000   1.008000
 9698       CTL2    75  DPPC  C214  9698  -0.180000  12.011000
 9699       HAL2    75  DPPC  H14R  9699   0.090000   1.008000
 9700       HAL2    75  DPPC  H14S  9700   0.090000   1.008000
 9701       CTL2    75  DPPC  C215  9701  -0.180000  12.011000
 9702       HAL2    75  DPPC  H15R  9702   0.090000   1.008000
 9703       HAL2    75  DPPC  H15S  9703   0.090000   1.008000
 9704       CTL3    75  DPPC  C216  9704  -0.270000  12.011000
 9705       HAL3    75  DPPC  H16R  9705   0.090000   1.008000
 9706       HAL3    75  DPPC  H16S  9706   0.090000   1.008000
 9707       HAL3    75  DPPC  H16T  9707   0.090000   1.008000
 9708       CTL2    75  DPPC   C33  9708  -0.180000  12.011000
 9709       HAL2    75  DPPC   H3X  9709   0.090000   1.008000
 9710       HAL2    75  DPPC   H3Y  9710   0.090000   1.008000
 9711       CTL2    75  DPPC   C34  9711  -0.180000  12.011000
 9712       HAL2    75  DPPC   H4X  9712   0.090000   1.008000
 9713       HAL2    75  DPPC   H4Y  9713   0.090000   1.008000
 9714       CTL2    75  DPPC   C35  9714  -0.180000  12.011000
 9715       HAL2    75  DPPC   H5X  9715   0.090000   1.008000
 9716       HAL2    75  DPPC   H5Y  9716   0.090000   1.008000
 9717       CTL2    75  DPPC   C36  9717  -0.180000  12.011000
 9718       HAL2    75  DPPC   H6X  9718   0.090000   1.008000
 9719       HAL2    75  DPPC   H6Y  9719   0.090000   1.008000
 9720       CTL2    75  DPPC   C37  9720  -0.180000  12.011000
 9721       HAL2    75  DPPC   H7X  9721   0.090000   1.008000
 9722       HAL2    75  DPPC   H7Y  9722   0.090000   1.008000
 9723       CTL2    75  DPPC   C38  9723  -0.180000  12.011000
 9724       HAL2    75  DPPC   H8X  9724   0.090000   1.008000
 9725       HAL2    75  DPPC   H8Y  9725   0.090000   1.008000
 9726       CTL2    75  DPPC   C39  9726  -0.180000  12.011000
 9727       HAL2    75  DPPC   H9X  9727   0.090000   1.008000
 9728       HAL2    75  DPPC   H9Y  9728   0.090000   1.008000
 9729       CTL2    75  DPPC  C310  9729  -0.180000  12.011000
 9730       HAL2    75  DPPC  H10X  9730   0.090000   1.008000
 9731       HAL2    75  DPPC  H10Y  9731   0.090000   1.008000
 9732       CTL2    75  DPPC  C311  9732  -0.180000  12.011000
 9733       HAL2    75  DPPC  H11X  9733   0.090000   1.008000
 9734       HAL2    75  DPPC  H11Y  9734   0.090000   1.008000
 9735       CTL2    75  DPPC  C312  9735  -0.180000  12.011000
 9736       HAL2    75  DPPC  H12X  9736   0.090000   1.008000
 9737       HAL2    75  DPPC  H12Y  9737   0.090000   1.008000
 9738       CTL2    75  DPPC  C313  9738  -0.180000  12.011000
 9739       HAL2    75  DPPC  H13X  9739   0.090000   1.008000
 9740       HAL2    75  DPPC  H13Y  9740   0.090000   1.008000
 9741       CTL2    75  DPPC  C314  9741  -0.180000  12.011000
 9742       HAL2    75  DPPC  H14X  9742   0.090000   1.008000
 9743       HAL2    75  DPPC  H14Y  9743   0.090000   1.008000
 9744       CTL2    75  DPPC  C315  9744  -0.180000  12.011000
 9745       HAL2    75  DPPC  H15X  9745   0.090000   1.008000
 9746       HAL2    75  DPPC  H15Y  9746   0.090000   1.008000
 9747       CTL3    75  DPPC  C316  9747  -0.270000  12.011000
 9748       HAL3    75  DPPC  H16X  9748   0.090000   1.008000
 9749       HAL3    75  DPPC  H16Y  9749   0.090000   1.008000
 9750       HAL3    75  DPPC  H16Z  9750   0.090000   1.008000
 9751        NTL    76  DPPC     N  9751  -0.600000  14.007000
 9752       CTL5    76  DPPC   C13  9752  -0.350000  12.011000
 9753         HL    76  DPPC  H13A  9753   0.250000   1.008000
 9754         HL    76  DPPC  H13B  9754   0.250000   1.008000
 9755         HL    76  DPPC  H13C  9755   0.250000   1.008000
 9756       CTL5    76  DPPC   C14  9756  -0.350000  12.011000
 9757         HL    76  DPPC  H14A  9757   0.250000   1.008000
 9758         HL    76  DPPC  H14B  9758   0.250000   1.008000
 9759         HL    76  DPPC  H14C  9759   0.250000   1.008000
 9760       CTL5    76  DPPC   C15  9760  -0.350000  12.011000
 9761         HL    76  DPPC  H15A  9761   0.250000   1.008000
 9762         HL    76  DPPC  H15B  9762   0.250000   1.008000
 9763         HL    76  DPPC  H15C  9763   0.250000   1.008000
 9764       CTL2    76  DPPC   C12  9764  -0.100000  12.011000
 9765         HL    76  DPPC  H12A  9765   0.250000   1.008000
 9766         HL    76  DPPC  H12B  9766   0.250000   1.008000
 9767       CTL2    76  DPPC   C11  9767  -0.080000  12.011000
 9768       HAL2    76  DPPC  H11A  9768   0.090000   1.008000
 9769       HAL2    76  DPPC  H11B  9769   0.090000   1.008000
 9770         PL    76  DPPC     P  9770   1.500000  30.974001
 9771        O2L    76  DPPC   O13  9771  -0.780000  15.999400
 9772        O2L    76  DPPC   O14  9772  -0.780000  15.999400
 9773       OSLP    76  DPPC   O11  9773  -0.570000  15.999400
 9774       OSLP    76  DPPC   O12  9774  -0.570000  15.999400
 9775       CTL2    76  DPPC    C1  9775  -0.080000  12.011000
 9776       HAL2    76  DPPC    HA  9776   0.090000   1.008000
 9777       HAL2    76  DPPC    HB  9777   0.090000   1.008000
 9778       CTL1    76  DPPC    C2  9778   0.170000  12.011000
 9779       HAL1    76  DPPC    HS  9779   0.090000   1.008000
 9780        OSL    76  DPPC   O21  9780  -0.490000  15.999400
 9781         CL    76  DPPC   C21  9781   0.900000  12.011000
 9782        OBL    76  DPPC   O22  9782  -0.630000  15.999400
 9783       CTL2    76  DPPC   C22  9783  -0.220000  12.011000
 9784       HAL2    76  DPPC   H2R  9784   0.090000   1.008000
 9785       HAL2    76  DPPC   H2S  9785   0.090000   1.008000
 9786       CTL2    76  DPPC    C3  9786   0.080000  12.011000
 9787       HAL2    76  DPPC    HX  9787   0.090000   1.008000
 9788       HAL2    76  DPPC    HY  9788   0.090000   1.008000
 9789        OSL    76  DPPC   O31  9789  -0.490000  15.999400
 9790         CL    76  DPPC   C31  9790   0.900000  12.011000
 9791        OBL    76  DPPC   O32  9791  -0.630000  15.999400
 9792       CTL2    76  DPPC   C32  9792  -0.220000  12.011000
 9793       HAL2    76  DPPC   H2X  9793   0.090000   1.008000
 9794       HAL2    76  DPPC   H2Y  9794   0.090000   1.008000
 9795       CTL2    76  DPPC   C23  9795  -0.180000  12.011000
 9796       HAL2    76  DPPC   H3R  9796   0.090000   1.008000
 9797       HAL2    76  DPPC   H3S  9797   0.090000   1.008000
 9798       CTL2    76  DPPC   C24  9798  -0.180000  12.011000
 9799       HAL2    76  DPPC   H4R  9799   0.090000   1.008000
 9800       HAL2    76  DPPC   H4S  9800   0.090000   1.008000
 9801       CTL2    76  DPPC   C25  9801  -0.180000  12.011000
 9802       HAL2    76  DPPC   H5R  9802   0.090000   1.008000
 9803       HAL2    76  DPPC   H5S  9803   0.090000   1.008000
 9804       CTL2    76  DPPC   C26  9804  -0.180000  12.011000
 9805       HAL2    76  DPPC   H6R  9805   0.090000   1.008000
 9806       HAL2    76  DPPC   H6S  9806   0.090000   1.008000
 9807       CTL2    76  DPPC   C27  9807  -0.180000  12.011000
 9808       HAL2    76  DPPC   H7R  9808   0.090000   1.008000
 9809       HAL2    76  DPPC   H7S  9809   0.090000   1.008000
 9810       CTL2    76  DPPC   C28  9810  -0.180000  12.011000
 9811       HAL2    76  DPPC   H8R  9811   0.090000   1.008000
 9812       HAL2    76  DPPC   H8S  9812   0.090000   1.008000
 9813       CTL2    76  DPPC   C29  9813  -0.180000  12.011000
 9814       HAL2    76  DPPC   H9R  9814   0.090000   1.008000
 9815       HAL2    76  DPPC   H9S  9815   0.090000   1.008000
 9816       CTL2    76  DPPC  C210  9816  -0.180000  12.011000
 9817       HAL2    76  DPPC  H10R  9817   0.090000   1.008000
 9818       HAL2    76  DPPC  H10S  9818   0.090000   1.008000
 9819       CTL2    76  DPPC  C211  9819  -0.180000  12.011000
 9820       HAL2    76  DPPC  H11R  9820   0.090000   1.008000
 9821       HAL2    76  DPPC  H11S  9821   0.090000   1.008000
 9822       CTL2    76  DPPC  C212  9822  -0.180000  12.011000
 9823       HAL2    76  DPPC  H12R  9823   0.090000   1.008000
 9824       HAL2    76  DPPC  H12S  9824   0.090000   1.008000
 9825       CTL2    76  DPPC  C213  9825  -0.180000  12.011000
 9826       HAL2    76  DPPC  H13R  9826   0.090000   1.008000
 9827       HAL2    76  DPPC  H13S  9827   0.090000   1.008000
 9828       CTL2    76  DPPC  C214  9828  -0.180000  12.011000
 9829       HAL2    76  DPPC  H14R  9829   0.090000   1.008000
 9830       HAL2    76  DPPC  H14S  9830   0.090000   1.008000
 9831       CTL2    76  DPPC  C215  9831  -0.180000  12.011000
 9832       HAL2    76  DPPC  H15R  9832   0.090000   1.008000
 9833       HAL2    76  DPPC  H15S  9833   0.090000   1.008000
 9834       CTL3    76  DPPC  C216  9834  -0.270000  12.011000
 9835       HAL3    76  DPPC  H16R  9835   0.090000   1.008000
 9836       HAL3    76  DPPC  H16S  9836   0.090000   1.008000
 9837       HAL3    76  DPPC  H16T  9837   0.090000   1.008000
 9838       CTL2    76  DPPC   C33  9838  -0.180000  12.011000
 9839       HAL2    76  DPPC   H3X  9839   0.090000   1.008000
 9840       HAL2    76  DPPC   H3Y  9840   0.090000   1.008000
 9841       CTL2    76  DPPC   C34  9841  -0.180000  12.011000
 9842       HAL2    76  DPPC   H4X  9842   0.090000   1.008000
 9843       HAL2    76  DPPC   H4Y  9843   0.090000   1.008000
 9844       CTL2    76  DPPC   C35  9844  -0.180000  12.011000
 9845       HAL2    76  DPPC   H5X  9845   0.090000   1.008000
 9846       HAL2    76  DPPC   H5Y  9846   0.090000   1.008000
 9847       CTL2    76  DPPC   C36  9847  -0.180000  12.011000
 9848       HAL2    76  DPPC   H6X  9848   0.090000   1.008000
 9849       HAL2    76  DPPC   H6Y  9849   0.090000   1.008000
 9850       CTL2    76  DPPC   C37  9850  -0.180000  12.011000
 9851       HAL2    76  DPPC   H7X  9851   0.090000   1.008000
 9852       HAL2    76  DPPC   H7Y  9852   0.090000   1.008000
 9853       CTL2    76  DPPC   C38  9853  -0.180000  12.011000
 9854       HAL2    76  DPPC   H8X  9854   0.090000   1.008000
 9855       HAL2    76  DPPC   H8Y  9855   0.090000   1.008000
 9856       CTL2    76  DPPC   C39  9856  -0.180000  12.011000
 9857       HAL2    76  DPPC   H9X  9857   0.090000   1.008000
 9858       HAL2    76  DPPC   H9Y  9858   0.090000   1.008000
 9859       CTL2    76  DPPC  C310  9859  -0.180000  12.011000
 9860       HAL2    76  DPPC  H10X  9860   0.090000   1.008000
 9861       HAL2    76  DPPC  H10Y  9861   0.090000   1.008000
 9862       CTL2    76  DPPC  C311  9862  -0.180000  12.011000
 9863       HAL2    76  DPPC  H11X  9863   0.090000   1.008000
 9864       HAL2    76  DPPC  H11Y  9864   0.090000   1.008000
 9865       CTL2    76  DPPC  C312  9865  -0.180000  12.011000
 9866       HAL2    76  DPPC  H12X  9866   0.090000   1.008000
 9867       HAL2    76  DPPC  H12Y  9867   0.090000   1.008000
 9868       CTL2    76  DPPC  C313  9868  -0.180000  12.011000
 9869       HAL2    76  DPPC  H13X  9869   0.090000   1.008000
 9870       HAL2    76  DPPC  H13Y  9870   0.090000   1.008000
 9871       CTL2    76  DPPC  C314  9871  -0.180000  12.011000
 9872       HAL2    76  DPPC  H14X  9872   0.090000   1.008000
 9873       HAL2    76  DPPC  H14Y  9873   0.090000   1.008000
 9874       CTL2    76  DPPC  C315  9874  -0.180000  12.011000
 9875       HAL2    76  DPPC  H15X  9875   0.090000   1.008000
 9876       HAL2    76  DPPC  H15Y  9876   0.090000   1.008000
 9877       CTL3    76  DPPC  C316  9877  -0.270000  12.011000
 9878       HAL3    76  DPPC  H16X  9878   0.090000   1.008000
 9879       HAL3    76  DPPC  H16Y  9879   0.090000   1.008000
 9880       HAL3    76  DPPC  H16Z  9880   0.090000   1.008000
 9881        NTL    77  DPPC     N  9881  -0.600000  14.007000
 9882       CTL5    77  DPPC   C13  9882  -0.350000  12.011000
 9883         HL    77  DPPC  H13A  9883   0.250000   1.008000
 9884         HL    77  DPPC  H13B  9884   0.250000   1.008000
 9885         HL    77  DPPC  H13C  9885   0.250000   1.008000
 9886       CTL5    77  DPPC   C14  9886  -0.350000  12.011000
 9887         HL    77  DPPC  H14A  9887   0.250000   1.008000
 9888         HL    77  DPPC  H14B  9888   0.250000   1.008000
 9889         HL    77  DPPC  H14C  9889   0.250000   1.008000
 9890       CTL5    77  DPPC   C15  9890  -0.350000  12.011000
 9891         HL    77  DPPC  H15A  9891   0.250000   1.008000
 9892         HL    77  DPPC  H15B  9892   0.250000   1.008000
 9893         HL    77  DPPC  H15C  9893   0.250000   1.008000
 9894       CTL2    77  DPPC   C12  9894  -0.100000  12.011000
 9895         HL    77  DPPC  H12A  9895   0.250000   1.008000
 9896         HL    77  DPPC  H12B  9896   0.250000   1.008000
 9897       CTL2    77  DPPC   C11  9897  -0.080000  12.011000
 9898       HAL2    77  DPPC  H11A  9898   0.090000   1.008000
 9899       HAL2    77  DPPC  H11B  9899   0.090000   1.008000
 9900         PL    77  DPPC     P  9900   1.500000  30.974001
 9901        O2L    77  DPPC   O13  9901  -0.780000  15.999400
 9902        O2L    77  DPPC   O14  9902  -0.780000  15.999400
 9903       OSLP    77  DPPC   O11  9903  -0.570000  15.999400
 9904       OSLP    77  DPPC   O12  9904  -0.570000  15.999400
 9905       CTL2    77  DPPC    C1  9905  -0.080000  12.011000
 9906       HAL2    77  DPPC    HA  9906   0.090000   1.008000
 9907       HAL2    77  DPPC    HB  9907   0.090000   1.008000
 9908       CTL1    77  DPPC    C2  9908   0.170000  12.011000
 9909       HAL1    77  DPPC    HS  9909   0.090000   1.008000
 9910        OSL    77  DPPC   O21  9910  -0.490000  15.999400
 9911         CL    77  DPPC   C21  9911   0.900000  12.011000
 9912        OBL    77  DPPC   O22  9912  -0.630000  15.999400
 9913       CTL2    77  DPPC   C22  9913  -0.220000  12.011000
 9914       HAL2    77  DPPC   H2R  9914   0.090000   1.008000
 9915       HAL2    77  DPPC   H2S  9915   0.090000   1.008000
 9916       CTL2    77  DPPC    C3  9916   0.080000  12.011000
 9917       HAL2    77  DPPC    HX  9917   0.090000   1.008000
 9918       HAL2    77  DPPC    HY  9918   0.090000   1.008000
 9919        OSL    77  DPPC   O31  9919  -0.490000  15.999400
 9920         CL    77  DPPC   C31  9920   0.900000  12.011000
 9921        OBL    77  DPPC   O32  9921  -0.630000  15.999400
 9922       CTL2    77  DPPC   C32  9922  -0.220000  12.011000
 9923       HAL2    77  DPPC   H2X  9923   0.090000   1.008000
 9924       HAL2    77  DPPC   H2Y  9924   0.090000   1.008000
 9925       CTL2    77  DPPC   C23  9925  -0.180000  12.011000
 9926       HAL2    77  DPPC   H3R  9926   0.090000   1.008000
 9927       HAL2    77  DPPC   H3S  9927   0.090000   1.008000
 9928       CTL2    77  DPPC   C24  9928  -0.180000  12.011000
 9929       HAL2    77  DPPC   H4R  9929   0.090000   1.008000
 9930       HAL2    77  DPPC   H4S  9930   0.090000   1.008000
 9931       CTL2    77  DPPC   C25  9931  -0.180000  12.011000
 9932       HAL2    77  DPPC   H5R  9932   0.090000   1.008000
 9933       HAL2    77  DPPC   H5S  9933   0.090000   1.008000
 9934       CTL2    77  DPPC   C26  9934  -0.180000  12.011000
 9935       HAL2    77  DPPC   H6R  9935   0.090000   1.008000
 9936       HAL2    77  DPPC   H6S  9936   0.090000   1.008000
 9937       CTL2    77  DPPC   C27  9937  -0.180000  12.011000
 9938       HAL2    77  DPPC   H7R  9938   0.090000   1.008000
 9939       HAL2    77  DPPC   H7S  9939   0.090000   1.008000
 9940       CTL2    77  DPPC   C28  9940  -0.180000  12.011000
 9941       HAL2    77  DPPC   H8R  9941   0.090000   1.008000
 9942       HAL2    77  DPPC   H8S  9942   0.090000   1.008000
 9943       CTL2    77  DPPC   C29  9943  -0.180000  12.011000
 9944       HAL2    77  DPPC   H9R  9944   0.090000   1.008000
 9945       HAL2    77  DPPC   H9S  9945   0.090000   1.008000
 9946       CTL2    77  DPPC  C210  9946  -0.180000  12.011000
 9947       HAL2    77  DPPC  H10R  9947   0.090000   1.008000
 9948       HAL2    77  DPPC  H10S  9948   0.090000   1.008000
 9949       CTL2    77  DPPC  C211  9949  -0.180000  12.011000
 9950       HAL2    77  DPPC  H11R  9950   0.090000   1.008000
 9951       HAL2    77  DPPC  H11S  9951   0.090000   1.008000
 9952       CTL2    77  DPPC  C212  9952  -0.180000  12.011000
 9953       HAL2    77  DPPC  H12R  9953   0.090000   1.008000
 9954       HAL2    77  DPPC  H12S  9954   0.090000   1.008000
 9955       CTL2    77  DPPC  C213  9955  -0.180000  12.011000
 9956       HAL2    77  DPPC  H13R  9956   0.090000   1.008000
 9957       HAL2    77  DPPC  H13S  9957   0.090000   1.008000
 9958       CTL2    77  DPPC  C214  9958  -0.180000  12.011000
 9959       HAL2    77  DPPC  H14R  9959   0.090000   1.008000
 9960       HAL2    77  DPPC  H14S  9960   0.090000   1.008000
 9961       CTL2    77  DPPC  C215  9961  -0.180000  12.011000
 9962       HAL2    77  DPPC  H15R  9962   0.090000   1.008000
 9963       HAL2    77  DPPC  H15S  9963   0.090000   1.008000
 9964       CTL3    77  DPPC  C216  9964  -0.270000  12.011000
 9965       HAL3    77  DPPC  H16R  9965   0.090000   1.008000
 9966       HAL3    77  DPPC  H16S  9966   0.090000   1.008000
 9967       HAL3    77  DPPC  H16T  9967   0.090000   1.008000
 9968       CTL2    77  DPPC   C33  9968  -0.180000  12.011000
 9969       HAL2    77  DPPC   H3X  9969   0.090000   1.008000
 9970       HAL2    77  DPPC   H3Y  9970   0.090000   1.008000
 9971       CTL2    77  DPPC   C34  9971  -0.180000  12.011000
 9972       HAL2    77  DPPC   H4X  9972   0.090000   1.008000
 9973       HAL2    77  DPPC   H4Y  9973   0.090000   1.008000
 9974       CTL2    77  DPPC   C35  9974  -0.180000  12.011000
 9975       HAL2    77  DPPC   H5X  9975   0.090000   1.008000
 9976       HAL2    77  DPPC   H5Y  9976   0.090000   1.008000
 9977       CTL2    77  DPPC   C36  9977  -0.180000  12.011000
 9978       HAL2    77  DPPC   H6X  9978   0.090000   1.008000
 9979       HAL2    77  DPPC   H6Y  9979   0.090000   1.008000
 9980       CTL2    77  DPPC   C37  9980  -0.180000  12.011000
 9981       HAL2    77  DPPC   H7X  9981   0.090000   1.008000
 9982       HAL2    77  DPPC   H7Y  9982   0.090000   1.008000
 9983       CTL2    77  DPPC   C38  9983  -0.180000  12.011000
 9984       HAL2    77  DPPC   H8X  9984   0.090000   1.008000
 9985       HAL2    77  DPPC   H8Y  9985   0.090000   1.008000
 9986       CTL2    77  DPPC   C39  9986  -0.180000  12.011000
 9987       HAL2    77  DPPC   H9X  9987   0.090000   1.008000
 9988       HAL2    77  DPPC   H9Y  9988   0.090000   1.008000
 9989       CTL2    77  DPPC  C310  9989  -0.180000  12.011000
 9990       HAL2    77  DPPC  H10X  9990   0.090000   1.008000
 9991       HAL2    77  DPPC  H10Y  9991   0.090000   1.008000
 9992       CTL2    77  DPPC  C311  9992  -0.180000  12.011000
 9993       HAL2    77  DPPC  H11X  9993   0.090000   1.008000
 9994       HAL2    77  DPPC  H11Y  9994   0.090000   1.008000
 9995       CTL2    77  DPPC  C312  9995  -0.180000  12.011000
 9996       HAL2    77  DPPC  H12X  9996   0.090000   1.008000
 9997       HAL2    77  DPPC  H12Y  9997   0.090000   1.008000
 9998       CTL2    77  DPPC  C313  9998  -0.180000  12.011000
 9999       HAL2    77  DPPC  H13X  9999   0.090000   1.008000
10000       HAL2    77  DPPC  H13Y 10000   0.090000   1.008000
10001       CTL2    77  DPPC  C314 10001  -0.180000  12.011000
10002       HAL2    77  DPPC  H14X 10002   0.090000   1.008000
10003       HAL2    77  DPPC  H14Y 10003   0.090000   1.008000
10004       CTL2    77  DPPC  C315 10004  -0.180000  12.011000
10005       HAL2    77  DPPC  H15X 10005   0.090000   1.008000
10006       HAL2    77  DPPC  H15Y 10006   0.090000   1.008000
10007       CTL3    77  DPPC  C316 10007  -0.270000  12.011000
10008       HAL3    77  DPPC  H16X 10008   0.090000   1.008000
10009       HAL3    77  DPPC  H16Y 10009   0.090000   1.008000
10010       HAL3    77  DPPC  H16Z 10010   0.090000   1.008000
10011        NTL    78  DPPC     N 10011  -0.600000  14.007000
10012       CTL5    78  DPPC   C13 10012  -0.350000  12.011000
10013         HL    78  DPPC  H13A 10013   0.250000   1.008000
10014         HL    78  DPPC  H13B 10014   0.250000   1.008000
10015         HL    78  DPPC  H13C 10015   0.250000   1.008000
10016       CTL5    78  DPPC   C14 10016  -0.350000  12.011000
10017         HL    78  DPPC  H14A 10017   0.250000   1.008000
10018         HL    78  DPPC  H14B 10018   0.250000   1.008000
10019         HL    78  DPPC  H14C 10019   0.250000   1.008000
10020       CTL5    78  DPPC   C15 10020  -0.350000  12.011000
10021         HL    78  DPPC  H15A 10021   0.250000   1.008000
10022         HL    78  DPPC  H15B 10022   0.250000   1.008000
10023         HL    78  DPPC  H15C 10023   0.250000   1.008000
10024       CTL2    78  DPPC   C12 10024  -0.100000  12.011000
10025         HL    78  DPPC  H12A 10025   0.250000   1.008000
10026         HL    78  DPPC  H12B 10026   0.250000   1.008000
10027       CTL2    78  DPPC   C11 10027  -0.080000  12.011000
10028       HAL2    78  DPPC  H11A 10028   0.090000   1.008000
10029       HAL2    78  DPPC  H11B 10029   0.090000   1.008000
10030         PL    78  DPPC     P 10030   1.500000  30.974001
10031        O2L    78  DPPC   O13 10031  -0.780000  15.999400
10032        O2L    78  DPPC   O14 10032  -0.780000  15.999400
10033       OSLP    78  DPPC   O11 10033  -0.570000  15.999400
10034       OSLP    78  DPPC   O12 10034  -0.570000  15.999400
10035       CTL2    78  DPPC    C1 10035  -0.080000  12.011000
10036       HAL2    78  DPPC    HA 10036   0.090000   1.008000
10037       HAL2    78  DPPC    HB 10037   0.090000   1.008000
10038       CTL1    78  DPPC    C2 10038   0.170000  12.011000
10039       HAL1    78  DPPC    HS 10039   0.090000   1.008000
10040        OSL    78  DPPC   O21 10040  -0.490000  15.999400
10041         CL    78  DPPC   C21 10041   0.900000  12.011000
10042        OBL    78  DPPC   O22 10042  -0.630000  15.999400
10043       CTL2    78  DPPC   C22 10043  -0.220000  12.011000
10044       HAL2    78  DPPC   H2R 10044   0.090000   1.008000
10045       HAL2    78  DPPC   H2S 10045   0.090000   1.008000
10046       CTL2    78  DPPC    C3 10046   0.080000  12.011000
10047       HAL2    78  DPPC    HX 10047   0.090000   1.008000
10048       HAL2    78  DPPC    HY 10048   0.090000   1.008000
10049        OSL    78  DPPC   O31 10049  -0.490000  15.999400
10050         CL    78  DPPC   C31 10050   0.900000  12.011000
10051        OBL    78  DPPC   O32 10051  -0.630000  15.999400
10052       CTL2    78  DPPC   C32 10052  -0.220000  12.011000
10053       HAL2    78  DPPC   H2X 10053   0.090000   1.008000
10054       HAL2    78  DPPC   H2Y 10054   0.090000   1.008000
10055       CTL2    78  DPPC   C23 10055  -0.180000  12.011000
10056       HAL2    78  DPPC   H3R 10056   0.090000   1.008000
10057       HAL2    78  DPPC   H3S 10057   0.090000   1.008000
10058       CTL2    78  DPPC   C24 10058  -0.180000  12.011000
10059       HAL2    78  DPPC   H4R 10059   0.090000   1.008000
10060       HAL2    78  DPPC   H4S 10060   0.090000   1.008000
10061       CTL2    78  DPPC   C25 10061  -0.180000  12.011000
10062       HAL2    78  DPPC   H5R 10062   0.090000   1.008000
10063       HAL2    78  DPPC   H5S 10063   0.090000   1.008000
10064       CTL2    78  DPPC   C26 10064  -0.180000  12.011000
10065       HAL2    78  DPPC   H6R 10065   0.090000   1.008000
10066       HAL2    78  DPPC   H6S 10066   0.090000   1.008000
10067       CTL2    78  DPPC   C27 10067  -0.180000  12.011000
10068       HAL2    78  DPPC   H7R 10068   0.090000   1.008000
10069       HAL2    78  DPPC   H7S 10069   0.090000   1.008000
10070       CTL2    78  DPPC   C28 10070  -0.180000  12.011000
10071       HAL2    78  DPPC   H8R 10071   0.090000   1.008000
10072       HAL2    78  DPPC   H8S 10072   0.090000   1.008000
10073       CTL2    78  DPPC   C29 10073  -0.180000  12.011000
10074       HAL2    78  DPPC   H9R 10074   0.090000   1.008000
10075       HAL2    78  DPPC   H9S 10075   0.090000   1.008000
10076       CTL2    78  DPPC  C210 10076  -0.180000  12.011000
10077       HAL2    78  DPPC  H10R 10077   0.090000   1.008000
10078       HAL2    78  DPPC  H10S 10078   0.090000   1.008000
10079       CTL2    78  DPPC  C211 10079  -0.180000  12.011000
10080       HAL2    78  DPPC  H11R 10080   0.090000   1.008000
10081       HAL2    78  DPPC  H11S 10081   0.090000   1.008000
10082       CTL2    78  DPPC  C212 10082  -0.180000  12.011000
10083       HAL2    78  DPPC  H12R 10083   0.090000   1.008000
10084       HAL2    78  DPPC  H12S 10084   0.090000   1.008000
10085       CTL2    78  DPPC  C213 10085  -0.180000  12.011000
10086       HAL2    78  DPPC  H13R 10086   0.090000   1.008000
10087       HAL2    78  DPPC  H13S 10087   0.090000   1.008000
10088       CTL2    78  DPPC  C214 10088  -0.180000  12.011000
10089       HAL2    78  DPPC  H14R 10089   0.090000   1.008000
10090       HAL2    78  DPPC  H14S 10090   0.090000   1.008000
10091       CTL2    78  DPPC  C215 10091  -0.180000  12.011000
10092       HAL2    78  DPPC  H15R 10092   0.090000   1.008000
10093       HAL2    78  DPPC  H15S 10093   0.090000   1.008000
10094       CTL3    78  DPPC  C216 10094  -0.270000  12.011000
10095       HAL3    78  DPPC  H16R 10095   0.090000   1.008000
10096       HAL3    78  DPPC  H16S 10096   0.090000   1.008000
10097       HAL3    78  DPPC  H16T 10097   0.090000   1.008000
10098       CTL2    78  DPPC   C33 10098  -0.180000  12.011000
10099       HAL2    78  DPPC   H3X 10099   0.090000   1.008000
10100       HAL2    78  DPPC   H3Y 10100   0.090000   1.008000
10101       CTL2    78  DPPC   C34 10101  -0.180000  12.011000
10102       HAL2    78  DPPC   H4X 10102   0.090000   1.008000
10103       HAL2    78  DPPC   H4Y 10103   0.090000   1.008000
10104       CTL2    78  DPPC   C35 10104  -0.180000  12.011000
10105       HAL2    78  DPPC   H5X 10105   0.090000   1.008000
10106       HAL2    78  DPPC   H5Y 10106   0.090000   1.008000
10107       CTL2    78  DPPC   C36 10107  -0.180000  12.011000
10108       HAL2    78  DPPC   H6X 10108   0.090000   1.008000
10109       HAL2    78  DPPC   H6Y 10109   0.090000   1.008000
10110       CTL2    78  DPPC   C37 10110  -0.180000  12.011000
10111       HAL2    78  DPPC   H7X 10111   0.090000   1.008000
10112       HAL2    78  DPPC   H7Y 10112   0.090000   1.008000
10113       CTL2    78  DPPC   C38 10113  -0.180000  12.011000
10114       HAL2    78  DPPC   H8X 10114   0.090000   1.008000
10115       HAL2    78  DPPC   H8Y 10115   0.090000   1.008000
10116       CTL2    78  DPPC   C39 10116  -0.180000  12.011000
10117       HAL2    78  DPPC   H9X 10117   0.090000   1.008000
10118       HAL2    78  DPPC   H9Y 10118   0.090000   1.008000
10119       CTL2    78  DPPC  C310 10119  -0.180000  12.011000
10120       HAL2    78  DPPC  H10X 10120   0.090000   1.008000
10121       HAL2    78  DPPC  H10Y 10121   0.090000   1.008000
10122       CTL2    78  DPPC  C311 10122  -0.180000  12.011000
10123       HAL2    78  DPPC  H11X 10123   0.090000   1.008000
10124       HAL2    78  DPPC  H11Y 10124   0.090000   1.008000
10125       CTL2    78  DPPC  C312 10125  -0.180000  12.011000
10126       HAL2    78  DPPC  H12X 10126   0.090000   1.008000
10127       HAL2    78  DPPC  H12Y 10127   0.090000   1.008000
10128       CTL2    78  DPPC  C313 10128  -0.180000  12.011000
10129       HAL2    78  DPPC  H13X 10129   0.090000   1.008000
10130       HAL2    78  DPPC  H13Y 10130   0.090000   1.008000
10131       CTL2    78  DPPC  C314 10131  -0.180000  12.011000
10132       HAL2    78  DPPC  H14X 10132   0.090000   1.008000
10133       HAL2    78  DPPC  H14Y 10133   0.090000   1.008000
10134       CTL2    78  DPPC  C315 10134  -0.180000  12.011000
10135       HAL2    78  DPPC  H15X 10135   0.090000   1.008000
10136       HAL2    78  DPPC  H15Y 10136   0.090000   1.008000
10137       CTL3    78  DPPC  C316 10137  -0.270000  12.011000
10138       HAL3    78  DPPC  H16X 10138   0.090000   1.008000
10139       HAL3    78  DPPC  H16Y 10139   0.090000   1.008000
10140       HAL3    78  DPPC  H16Z 10140   0.090000   1.008000
10141        NTL    79  DPPC     N 10141  -0.600000  14.007000
10142       CTL5    79  DPPC   C13 10142  -0.350000  12.011000
10143         HL    79  DPPC  H13A 10143   0.250000   1.008000
10144         HL    79  DPPC  H13B 10144   0.250000   1.008000
10145         HL    79  DPPC  H13C 10145   0.250000   1.008000
10146       CTL5    79  DPPC   C14 10146  -0.350000  12.011000
10147         HL    79  DPPC  H14A 10147   0.250000   1.008000
10148         HL    79  DPPC  H14B 10148   0.250000   1.008000
10149         HL    79  DPPC  H14C 10149   0.250000   1.008000
10150       CTL5    79  DPPC   C15 10150  -0.350000  12.011000
10151         HL    79  DPPC  H15A 10151   0.250000   1.008000
10152         HL    79  DPPC  H15B 10152   0.250000   1.008000
10153         HL    79  DPPC  H15C 10153   0.250000   1.008000
10154       CTL2    79  DPPC   C12 10154  -0.100000  12.011000
10155         HL    79  DPPC  H12A 10155   0.250000   1.008000
10156         HL    79  DPPC  H12B 10156   0.250000   1.008000
10157       CTL2    79  DPPC   C11 10157  -0.080000  12.011000
10158       HAL2    79  DPPC  H11A 10158   0.090000   1.008000
10159       HAL2    79  DPPC  H11B 10159   0.090000   1.008000
10160         PL    79  DPPC     P 10160   1.500000  30.974001
10161        O2L    79  DPPC   O13 10161  -0.780000  15.999400
10162        O2L    79  DPPC   O14 10162  -0.780000  15.999400
10163       OSLP    79  DPPC   O11 10163  -0.570000  15.999400
10164       OSLP    79  DPPC   O12 10164  -0.570000  15.999400
10165       CTL2    79  DPPC    C1 10165  -0.080000  12.011000
10166       HAL2    79  DPPC    HA 10166   0.090000   1.008000
10167       HAL2    79  DPPC    HB 10167   0.090000   1.008000
10168       CTL1    79  DPPC    C2 10168   0.170000  12.011000
10169       HAL1    79  DPPC    HS 10169   0.090000   1.008000
10170        OSL    79  DPPC   O21 10170  -0.490000  15.999400
10171         CL    79  DPPC   C21 10171   0.900000  12.011000
10172        OBL    79  DPPC   O22 10172  -0.630000  15.999400
10173       CTL2    79  DPPC   C22 10173  -0.220000  12.011000
10174       HAL2    79  DPPC   H2R 10174   0.090000   1.008000
10175       HAL2    79  DPPC   H2S 10175   0.090000   1.008000
10176       CTL2    79  DPPC    C3 10176   0.080000  12.011000
10177       HAL2    79  DPPC    HX 10177   0.090000   1.008000
10178       HAL2    79  DPPC    HY 10178   0.090000   1.008000
10179        OSL    79  DPPC   O31 10179  -0.490000  15.999400
10180         CL    79  DPPC   C31 10180   0.900000  12.011000
10181        OBL    79  DPPC   O32 10181  -0.630000  15.999400
10182       CTL2    79  DPPC   C32 10182  -0.220000  12.011000
10183       HAL2    79  DPPC   H2X 10183   0.090000   1.008000
10184       HAL2    79  DPPC   H2Y 10184   0.090000   1.008000
10185       CTL2    79  DPPC   C23 10185  -0.180000  12.011000
10186       HAL2    79  DPPC   H3R 10186   0.090000   1.008000
10187       HAL2    79  DPPC   H3S 10187   0.090000   1.008000
10188       CTL2    79  DPPC   C24 10188  -0.180000  12.011000
10189       HAL2    79  DPPC   H4R 10189   0.090000   1.008000
10190       HAL2    79  DPPC   H4S 10190   0.090000   1.008000
10191       CTL2    79  DPPC   C25 10191  -0.180000  12.011000
10192       HAL2    79  DPPC   H5R 10192   0.090000   1.008000
10193       HAL2    79  DPPC   H5S 10193   0.090000   1.008000
10194       CTL2    79  DPPC   C26 10194  -0.180000  12.011000
10195       HAL2    79  DPPC   H6R 10195   0.090000   1.008000
10196       HAL2    79  DPPC   H6S 10196   0.090000   1.008000
10197       CTL2    79  DPPC   C27 10197  -0.180000  12.011000
10198       HAL2    79  DPPC   H7R 10198   0.090000   1.008000
10199       HAL2    79  DPPC   H7S 10199   0.090000   1.008000
10200       CTL2    79  DPPC   C28 10200  -0.180000  12.011000
10201       HAL2    79  DPPC   H8R 10201   0.090000   1.008000
10202       HAL2    79  DPPC   H8S 10202   0.090000   1.008000
10203       CTL2    79  DPPC   C29 10203  -0.180000  12.011000
10204       HAL2    79  DPPC   H9R 10204   0.090000   1.008000
10205       HAL2    79  DPPC   H9S 10205   0.090000   1.008000
10206       CTL2    79  DPPC  C210 10206  -0.180000  12.011000
10207       HAL2    79  DPPC  H10R 10207   0.090000   1.008000
10208       HAL2    79  DPPC  H10S 10208   0.090000   1.008000
10209       CTL2    79  DPPC  C211 10209  -0.180000  12.011000
10210       HAL2    79  DPPC  H11R 10210   0.090000   1.008000
10211       HAL2    79  DPPC  H11S 10211   0.090000   1.008000
10212       CTL2    79  DPPC  C212 10212  -0.180000  12.011000
10213       HAL2    79  DPPC  H12R 10213   0.090000   1.008000
10214       HAL2    79  DPPC  H12S 10214   0.090000   1.008000
10215       CTL2    79  DPPC  C213 10215  -0.180000  12.011000
10216       HAL2    79  DPPC  H13R 10216   0.090000   1.008000
10217       HAL2    79  DPPC  H13S 10217   0.090000   1.008000
10218       CTL2    79  DPPC  C214 10218  -0.180000  12.011000
10219       HAL2    79  DPPC  H14R 10219   0.090000   1.008000
10220       HAL2    79  DPPC  H14S 10220   0.090000   1.008000
10221       CTL2    79  DPPC  C215 10221  -0.180000  12.011000
10222       HAL2    79  DPPC  H15R 10222   0.090000   1.008000
10223       HAL2    79  DPPC  H15S 10223   0.090000   1.008000
10224       CTL3    79  DPPC  C216 10224  -0.270000  12.011000
10225       HAL3    79  DPPC  H16R 10225   0.090000   1.008000
10226       HAL3    79  DPPC  H16S 10226   0.090000   1.008000
10227       HAL3    79  DPPC  H16T 10227   0.090000   1.008000
10228       CTL2    79  DPPC   C33 10228  -0.180000  12.011000
10229       HAL2    79  DPPC   H3X 10229   0.090000   1.008000
10230       HAL2    79  DPPC   H3Y 10230   0.090000   1.008000
10231       CTL2    79  DPPC   C34 10231  -0.180000  12.011000
10232       HAL2    79  DPPC   H4X 10232   0.090000   1.008000
10233       HAL2    79  DPPC   H4Y 10233   0.090000   1.008000
10234       CTL2    79  DPPC   C35 10234  -0.180000  12.011000
10235       HAL2    79  DPPC   H5X 10235   0.090000   1.008000
10236       HAL2    79  DPPC   H5Y 10236   0.090000   1.008000
10237       CTL2    79  DPPC   C36 10237  -0.180000  12.011000
10238       HAL2    79  DPPC   H6X 10238   0.090000   1.008000
10239       HAL2    79  DPPC   H6Y 10239   0.090000   1.008000
10240       CTL2    79  DPPC   C37 10240  -0.180000  12.011000
10241       HAL2    79  DPPC   H7X 10241   0.090000   1.008000
10242       HAL2    79  DPPC   H7Y 10242   0.090000   1.008000
10243       CTL2    79  DPPC   C38 10243  -0.180000  12.011000
10244       HAL2    79  DPPC   H8X 10244   0.090000   1.008000
10245       HAL2    79  DPPC   H8Y 10245   0.090000   1.008000
10246       CTL2    79  DPPC   C39 10246  -0.180000  12.011000
10247       HAL2    79  DPPC   H9X 10247   0.090000   1.008000
10248       HAL2    79  DPPC   H9Y 10248   0.090000   1.008000
10249       CTL2    79  DPPC  C310 10249  -0.180000  12.011000
10250       HAL2    79  DPPC  H10X 10250   0.090000   1.008000
10251       HAL2    79  DPPC  H10Y 10251   0.090000   1.008000
10252       CTL2    79  DPPC  C311 10252  -0.180000  12.011000
10253       HAL2    79  DPPC  H11X 10253   0.090000   1.008000
10254       HAL2    79  DPPC  H11Y 10254   0.090000   1.008000
10255       CTL2    79  DPPC  C312 10255  -0.180000  12.011000
10256       HAL2    79  DPPC  H12X 10256   0.090000   1.008000
10257       HAL2    79  DPPC  H12Y 10257   0.090000   1.008000
10258       CTL2    79  DPPC  C313 10258  -0.180000  12.011000
10259       HAL2    79  DPPC  H13X 10259   0.090000   1.008000
10260       HAL2    79  DPPC  H13Y 10260   0.090000   1.008000
10261       CTL2    79  DPPC  C314 10261  -0.180000  12.011000
10262       HAL2    79  DPPC  H14X 10262   0.090000   1.008000
10263       HAL2    79  DPPC  H14Y 10263   0.090000   1.008000
10264       CTL2    79  DPPC  C315 10264  -0.180000  12.011000
10265       HAL2    79  DPPC  H15X 10265   0.090000   1.008000
10266       HAL2    79  DPPC  H15Y 10266   0.090000   1.008000
10267       CTL3    79  DPPC  C316 10267  -0.270000  12.011000
10268       HAL3    79  DPPC  H16X 10268   0.090000   1.008000
10269       HAL3    79  DPPC  H16Y 10269   0.090000   1.008000
10270       HAL3    79  DPPC  H16Z 10270   0.090000   1.008000
10271        NTL    80  DPPC     N 10271  -0.600000  14.007000
10272       CTL5    80  DPPC   C13 10272  -0.350000  12.011000
10273         HL    80  DPPC  H13A 10273   0.250000   1.008000
10274         HL    80  DPPC  H13B 10274   0.250000   1.008000
10275         HL    80  DPPC  H13C 10275   0.250000   1.008000
10276       CTL5    80  DPPC   C14 10276  -0.350000  12.011000
10277         HL    80  DPPC  H14A 10277   0.250000   1.008000
10278         HL    80  DPPC  H14B 10278   0.250000   1.008000
10279         HL    80  DPPC  H14C 10279   0.250000   1.008000
10280       CTL5    80  DPPC   C15 10280  -0.350000  12.011000
10281         HL    80  DPPC  H15A 10281   0.250000   1.008000
10282         HL    80  DPPC  H15B 10282   0.250000   1.008000
10283         HL    80  DPPC  H15C 10283   0.250000   1.008000
10284       CTL2    80  DPPC   C12 10284  -0.100000  12.011000
10285         HL    80  DPPC  H12A 10285   0.250000   1.008000
10286         HL    80  DPPC  H12B 10286   0.250000   1.008000
10287       CTL2    80  DPPC   C11 10287  -0.080000  12.011000
10288       HAL2    80  DPPC  H11A 10288   0.090000   1.008000
10289       HAL2    80  DPPC  H11B 10289   0.090000   1.008000
10290         PL    80  DPPC     P 10290   1.500000  30.974001
10291        O2L    80  DPPC   O13 10291  -0.780000  15.999400
10292        O2L    80  DPPC   O14 10292  -0.780000  15.999400
10293       OSLP    80  DPPC   O11 10293  -0.570000  15.999400
10294       OSLP    80  DPPC   O12 10294  -0.570000  15.999400
10295       CTL2    80  DPPC    C1 10295  -0.080000  12.011000
10296       HAL2    80  DPPC    HA 10296   0.090000   1.008000
10297       HAL2    80  DPPC    HB 10297   0.090000   1.008000
10298       CTL1    80  DPPC    C2 10298   0.170000  12.011000
10299       HAL1    80  DPPC    HS 10299   0.090000   1.008000
10300        OSL    80  DPPC   O21 10300  -0.490000  15.999400
10301         CL    80  DPPC   C21 10301   0.900000  12.011000
10302        OBL    80  DPPC   O22 10302  -0.630000  15.999400
10303       CTL2    80  DPPC   C22 10303  -0.220000  12.011000
10304       HAL2    80  DPPC   H2R 10304   0.090000   1.008000
10305       HAL2    80  DPPC   H2S 10305   0.090000   1.008000
10306       CTL2    80  DPPC    C3 10306   0.080000  12.011000
10307       HAL2    80  DPPC    HX 10307   0.090000   1.008000
10308       HAL2    80  DPPC    HY 10308   0.090000   1.008000
10309        OSL    80  DPPC   O31 10309  -0.490000  15.999400
10310         CL    80  DPPC   C31 10310   0.900000  12.011000
10311        OBL    80  DPPC   O32 10311  -0.630000  15.999400
10312       CTL2    80  DPPC   C32 10312  -0.220000  12.011000
10313       HAL2    80  DPPC   H2X 10313   0.090000   1.008000
10314       HAL2    80  DPPC   H2Y 10314   0.090000   1.008000
10315       CTL2    80  DPPC   C23 10315  -0.180000  12.011000
10316       HAL2    80  DPPC   H3R 10316   0.090000   1.008000
10317       HAL2    80  DPPC   H3S 10317   0.090000   1.008000
10318       CTL2    80  DPPC   C24 10318  -0.180000  12.011000
10319       HAL2    80  DPPC   H4R 10319   0.090000   1.008000
10320       HAL2    80  DPPC   H4S 10320   0.090000   1.008000
10321       CTL2    80  DPPC   C25 10321  -0.180000  12.011000
10322       HAL2    80  DPPC   H5R 10322   0.090000   1.008000
10323       HAL2    80  DPPC   H5S 10323   0.090000   1.008000
10324       CTL2    80  DPPC   C26 10324  -0.180000  12.011000
10325       HAL2    80  DPPC   H6R 10325   0.090000   1.008000
10326       HAL2    80  DPPC   H6S 10326   0.090000   1.008000
10327       CTL2    80  DPPC   C27 10327  -0.180000  12.011000
10328       HAL2    80  DPPC   H7R 10328   0.090000   1.008000
10329       HAL2    80  DPPC   H7S 10329   0.090000   1.008000
10330       CTL2    80  DPPC   C28 10330  -0.180000  12.011000
10331       HAL2    80  DPPC   H8R 10331   0.090000   1.008000
10332       HAL2    80  DPPC   H8S 10332   0.090000   1.008000
10333       CTL2    80  DPPC   C29 10333  -0.180000  12.011000
10334       HAL2    80  DPPC   H9R 10334   0.090000   1.008000
10335       HAL2    80  DPPC   H9S 10335   0.090000   1.008000
10336       CTL2    80  DPPC  C210 10336  -0.180000  12.011000
10337       HAL2    80  DPPC  H10R 10337   0.090000   1.008000
10338       HAL2    80  DPPC  H10S 10338   0.090000   1.008000
10339       CTL2    80  DPPC  C211 10339  -0.180000  12.011000
10340       HAL2    80  DPPC  H11R 10340   0.090000   1.008000
10341       HAL2    80  DPPC  H11S 10341   0.090000   1.008000
10342       CTL2    80  DPPC  C212 10342  -0.180000  12.011000
10343       HAL2    80  DPPC  H12R 10343   0.090000   1.008000
10344       HAL2    80  DPPC  H12S 10344   0.090000   1.008000
10345       CTL2    80  DPPC  C213 10345  -0.180000  12.011000
10346       HAL2    80  DPPC  H13R 10346   0.090000   1.008000
10347       HAL2    80  DPPC  H13S 10347   0.090000   1.008000
10348       CTL2    80  DPPC  C214 10348  -0.180000  12.011000
10349       HAL2    80  DPPC  H14R 10349   0.090000   1.008000
10350       HAL2    80  DPPC  H14S 10350   0.090000   1.008000
10351       CTL2    80  DPPC  C215 10351  -0.180000  12.011000
10352       HAL2    80  DPPC  H15R 10352   0.090000   1.008000
10353       HAL2    80  DPPC  H15S 10353   0.090000   1.008000
10354       CTL3    80  DPPC  C216 10354  -0.270000  12.011000
10355       HAL3    80  DPPC  H16R 10355   0.090000   1.008000
10356       HAL3    80  DPPC  H16S 10356   0.090000   1.008000
10357       HAL3    80  DPPC  H16T 10357   0.090000   1.008000
10358       CTL2    80  DPPC   C33 10358  -0.180000  12.011000
10359       HAL2    80  DPPC   H3X 10359   0.090000   1.008000
10360       HAL2    80  DPPC   H3Y 10360   0.090000   1.008000
10361       CTL2    80  DPPC   C34 10361  -0.180000  12.011000
10362       HAL2    80  DPPC   H4X 10362   0.090000   1.008000
10363       HAL2    80  DPPC   H4Y 10363   0.090000   1.008000
10364       CTL2    80  DPPC   C35 10364  -0.180000  12.011000
10365       HAL2    80  DPPC   H5X 10365   0.090000   1.008000
10366       HAL2    80  DPPC   H5Y 10366   0.090000   1.008000
10367       CTL2    80  DPPC   C36 10367  -0.180000  12.011000
10368       HAL2    80  DPPC   H6X 10368   0.090000   1.008000
10369       HAL2    80  DPPC   H6Y 10369   0.090000   1.008000
10370       CTL2    80  DPPC   C37 10370  -0.180000  12.011000
10371       HAL2    80  DPPC   H7X 10371   0.090000   1.008000
10372       HAL2    80  DPPC   H7Y 10372   0.090000   1.008000
10373       CTL2    80  DPPC   C38 10373  -0.180000  12.011000
10374       HAL2    80  DPPC   H8X 10374   0.090000   1.008000
10375       HAL2    80  DPPC   H8Y 10375   0.090000   1.008000
10376       CTL2    80  DPPC   C39 10376  -0.180000  12.011000
10377       HAL2    80  DPPC   H9X 10377   0.090000   1.008000
10378       HAL2    80  DPPC   H9Y 10378   0.090000   1.008000
10379       CTL2    80  DPPC  C310 10379  -0.180000  12.011000
10380       HAL2    80  DPPC  H10X 10380   0.090000   1.008000
10381       HAL2    80  DPPC  H10Y 10381   0.090000   1.008000
10382       CTL2    80  DPPC  C311 10382  -0.180000  12.011000
10383       HAL2    80  DPPC  H11X 10383   0.090000   1.008000
10384       HAL2    80  DPPC  H11Y 10384   0.090000   1.008000
10385       CTL2    80  DPPC  C312 10385  -0.180000  12.011000
10386       HAL2    80  DPPC  H12X 10386   0.090000   1.008000
10387       HAL2    80  DPPC  H12Y 10387   0.090000   1.008000
10388       CTL2    80  DPPC  C313 10388  -0.180000  12.011000
10389       HAL2    80  DPPC  H13X 10389   0.090000   1.008000
10390       HAL2    80  DPPC  H13Y 10390   0.090000   1.008000
10391       CTL2    80  DPPC  C314 10391  -0.180000  12.011000
10392       HAL2    80  DPPC  H14X 10392   0.090000   1.008000
10393       HAL2    80  DPPC  H14Y 10393   0.090000   1.008000
10394       CTL2    80  DPPC  C315 10394  -0.180000  12.011000
10395       HAL2    80  DPPC  H15X 10395   0.090000   1.008000
10396       HAL2    80  DPPC  H15Y 10396   0.090000   1.008000
10397       CTL3    80  DPPC  C316 10397  -0.270000  12.011000
10398       HAL3    80  DPPC  H16X 10398   0.090000   1.008000
10399       HAL3    80  DPPC  H16Y 10399   0.090000   1.008000
10400       HAL3    80  DPPC  H16Z 10400   0.090000   1.008000
10401        NTL    81  DPPC     N 10401  -0.600000  14.007000
10402       CTL5    81  DPPC   C13 10402  -0.350000  12.011000
10403         HL    81  DPPC  H13A 10403   0.250000   1.008000
10404         HL    81  DPPC  H13B 10404   0.250000   1.008000
10405         HL    81  DPPC  H13C 10405   0.250000   1.008000
10406       CTL5    81  DPPC   C14 10406  -0.350000  12.011000
10407         HL    81  DPPC  H14A 10407   0.250000   1.008000
10408         HL    81  DPPC  H14B 10408   0.250000   1.008000
10409         HL    81  DPPC  H14C 10409   0.250000   1.008000
10410       CTL5    81  DPPC   C15 10410  -0.350000  12.011000
10411         HL    81  DPPC  H15A 10411   0.250000   1.008000
10412         HL    81  DPPC  H15B 10412   0.250000   1.008000
10413         HL    81  DPPC  H15C 10413   0.250000   1.008000
10414       CTL2    81  DPPC   C12 10414  -0.100000  12.011000
10415         HL    81  DPPC  H12A 10415   0.250000   1.008000
10416         HL    81  DPPC  H12B 10416   0.250000   1.008000
10417       CTL2    81  DPPC   C11 10417  -0.080000  12.011000
10418       HAL2    81  DPPC  H11A 10418   0.090000   1.008000
10419       HAL2    81  DPPC  H11B 10419   0.090000   1.008000
10420         PL    81  DPPC     P 10420   1.500000  30.974001
10421        O2L    81  DPPC   O13 10421  -0.780000  15.999400
10422        O2L    81  DPPC   O14 10422  -0.780000  15.999400
10423       OSLP    81  DPPC   O11 10423  -0.570000  15.999400
10424       OSLP    81  DPPC   O12 10424  -0.570000  15.999400
10425       CTL2    81  DPPC    C1 10425  -0.080000  12.011000
10426       HAL2    81  DPPC    HA 10426   0.090000   1.008000
10427       HAL2    81  DPPC    HB 10427   0.090000   1.008000
10428       CTL1    81  DPPC    C2 10428   0.170000  12.011000
10429       HAL1    81  DPPC    HS 10429   0.090000   1.008000
10430        OSL    81  DPPC   O21 10430  -0.490000  15.999400
10431         CL    81  DPPC   C21 10431   0.900000  12.011000
10432        OBL    81  DPPC   O22 10432  -0.630000  15.999400
10433       CTL2    81  DPPC   C22 10433  -0.220000  12.011000
10434       HAL2    81  DPPC   H2R 10434   0.090000   1.008000
10435       HAL2    81  DPPC   H2S 10435   0.090000   1.008000
10436       CTL2    81  DPPC    C3 10436   0.080000  12.011000
10437       HAL2    81  DPPC    HX 10437   0.090000   1.008000
10438       HAL2    81  DPPC    HY 10438   0.090000   1.008000
10439        OSL    81  DPPC   O31 10439  -0.490000  15.999400
10440         CL    81  DPPC   C31 10440   0.900000  12.011000
10441        OBL    81  DPPC   O32 10441  -0.630000  15.999400
10442       CTL2    81  DPPC   C32 10442  -0.220000  12.011000
10443       HAL2    81  DPPC   H2X 10443   0.090000   1.008000
10444       HAL2    81  DPPC   H2Y 10444   0.090000   1.008000
10445       CTL2    81  DPPC   C23 10445  -0.180000  12.011000
10446       HAL2    81  DPPC   H3R 10446   0.090000   1.008000
10447       HAL2    81  DPPC   H3S 10447   0.090000   1.008000
10448       CTL2    81  DPPC   C24 10448  -0.180000  12.011000
10449       HAL2    81  DPPC   H4R 10449   0.090000   1.008000
10450       HAL2    81  DPPC   H4S 10450   0.090000   1.008000
10451       CTL2    81  DPPC   C25 10451  -0.180000  12.011000
10452       HAL2    81  DPPC   H5R 10452   0.090000   1.008000
10453       HAL2    81  DPPC   H5S 10453   0.090000   1.008000
10454       CTL2    81  DPPC   C26 10454  -0.180000  12.011000
10455       HAL2    81  DPPC   H6R 10455   0.090000   1.008000
10456       HAL2    81  DPPC   H6S 10456   0.090000   1.008000
10457       CTL2    81  DPPC   C27 10457  -0.180000  12.011000
10458       HAL2    81  DPPC   H7R 10458   0.090000   1.008000
10459       HAL2    81  DPPC   H7S 10459   0.090000   1.008000
10460       CTL2    81  DPPC   C28 10460  -0.180000  12.011000
10461       HAL2    81  DPPC   H8R 10461   0.090000   1.008000
10462       HAL2    81  DPPC   H8S 10462   0.090000   1.008000
10463       CTL2    81  DPPC   C29 10463  -0.180000  12.011000
10464       HAL2    81  DPPC   H9R 10464   0.090000   1.008000
10465       HAL2    81  DPPC   H9S 10465   0.090000   1.008000
10466       CTL2    81  DPPC  C210 10466  -0.180000  12.011000
10467       HAL2    81  DPPC  H10R 10467   0.090000   1.008000
10468       HAL2    81  DPPC  H10S 10468   0.090000   1.008000
10469       CTL2    81  DPPC  C211 10469  -0.180000  12.011000
10470       HAL2    81  DPPC  H11R 10470   0.090000   1.008000
10471       HAL2    81  DPPC  H11S 10471   0.090000   1.008000
10472       CTL2    81  DPPC  C212 10472  -0.180000  12.011000
10473       HAL2    81  DPPC  H12R 10473   0.090000   1.008000
10474       HAL2    81  DPPC  H12S 10474   0.090000   1.008000
10475       CTL2    81  DPPC  C213 10475  -0.180000  12.011000
10476       HAL2    81  DPPC  H13R 10476   0.090000   1.008000
10477       HAL2    81  DPPC  H13S 10477   0.090000   1.008000
10478       CTL2    81  DPPC  C214 10478  -0.180000  12.011000
10479       HAL2    81  DPPC  H14R 10479   0.090000   1.008000
10480       HAL2    81  DPPC  H14S 10480   0.090000   1.008000
10481       CTL2    81  DPPC  C215 10481  -0.180000  12.011000
10482       HAL2    81  DPPC  H15R 10482   0.090000   1.008000
10483       HAL2    81  DPPC  H15S 10483   0.090000   1.008000
10484       CTL3    81  DPPC  C216 10484  -0.270000  12.011000
10485       HAL3    81  DPPC  H16R 10485   0.090000   1.008000
10486       HAL3    81  DPPC  H16S 10486   0.090000   1.008000
10487       HAL3    81  DPPC  H16T 10487   0.090000   1.008000
10488       CTL2    81  DPPC   C33 10488  -0.180000  12.011000
10489       HAL2    81  DPPC   H3X 10489   0.090000   1.008000
10490       HAL2    81  DPPC   H3Y 10490   0.090000   1.008000
10491       CTL2    81  DPPC   C34 10491  -0.180000  12.011000
10492       HAL2    81  DPPC   H4X 10492   0.090000   1.008000
10493       HAL2    81  DPPC   H4Y 10493   0.090000   1.008000
10494       CTL2    81  DPPC   C35 10494  -0.180000  12.011000
10495       HAL2    81  DPPC   H5X 10495   0.090000   1.008000
10496       HAL2    81  DPPC   H5Y 10496   0.090000   1.008000
10497       CTL2    81  DPPC   C36 10497  -0.180000  12.011000
10498       HAL2    81  DPPC   H6X 10498   0.090000   1.008000
10499       HAL2    81  DPPC   H6Y 10499   0.090000   1.008000
10500       CTL2    81  DPPC   C37 10500  -0.180000  12.011000
10501       HAL2    81  DPPC   H7X 10501   0.090000   1.008000
10502       HAL2    81  DPPC   H7Y 10502   0.090000   1.008000
10503       CTL2    81  DPPC   C38 10503  -0.180000  12.011000
10504       HAL2    81  DPPC   H8X 10504   0.090000   1.008000
10505       HAL2    81  DPPC   H8Y 10505   0.090000   1.008000
10506       CTL2    81  DPPC   C39 10506  -0.180000  12.011000
10507       HAL2    81  DPPC   H9X 10507   0.090000   1.008000
10508       HAL2    81  DPPC   H9Y 10508   0.090000   1.008000
10509       CTL2    81  DPPC  C310 10509  -0.180000  12.011000
10510       HAL2    81  DPPC  H10X 10510   0.090000   1.008000
10511       HAL2    81  DPPC  H10Y 10511   0.090000   1.008000
10512       CTL2    81  DPPC  C311 10512  -0.180000  12.011000
10513       HAL2    81  DPPC  H11X 10513   0.090000   1.008000
10514       HAL2    81  DPPC  H11Y 10514   0.090000   1.008000
10515       CTL2    81  DPPC  C312 10515  -0.180000  12.011000
10516       HAL2    81  DPPC  H12X 10516   0.090000   1.008000
10517       HAL2    81  DPPC  H12Y 10517   0.090000   1.008000
10518       CTL2    81  DPPC  C313 10518  -0.180000  12.011000
10519       HAL2    81  DPPC  H13X 10519   0.090000   1.008000
10520       HAL2    81  DPPC  H13Y 10520   0.090000   1.008000
10521       CTL2    81  DPPC  C314 10521  -0.180000  12.011000
10522       HAL2    81  DPPC  H14X 10522   0.090000   1.008000
10523       HAL2    81  DPPC  H14Y 10523   0.090000   1.008000
10524       CTL2    81  DPPC  C315 10524  -0.180000  12.011000
10525       HAL2    81  DPPC  H15X 10525   0.090000   1.008000
10526       HAL2    81  DPPC  H15Y 10526   0.090000   1.008000
10527       CTL3    81  DPPC  C316 10527  -0.270000  12.011000
10528       HAL3    81  DPPC  H16X 10528   0.090000   1.008000
10529       HAL3    81  DPPC  H16Y 10529   0.090000   1.008000
10530       HAL3    81  DPPC  H16Z 10530   0.090000   1.008000
10531        NTL    82  DPPC     N 10531  -0.600000  14.007000
10532       CTL5    82  DPPC   C13 10532  -0.350000  12.011000
10533         HL    82  DPPC  H13A 10533   0.250000   1.008000
10534         HL    82  DPPC  H13B 10534   0.250000   1.008000
10535         HL    82  DPPC  H13C 10535   0.250000   1.008000
10536       CTL5    82  DPPC   C14 10536  -0.350000  12.011000
10537         HL    82  DPPC  H14A 10537   0.250000   1.008000
10538         HL    82  DPPC  H14B 10538   0.250000   1.008000
10539         HL    82  DPPC  H14C 10539   0.250000   1.008000
10540       CTL5    82  DPPC   C15 10540  -0.350000  12.011000
10541         HL    82  DPPC  H15A 10541   0.250000   1.008000
10542         HL    82  DPPC  H15B 10542   0.250000   1.008000
10543         HL    82  DPPC  H15C 10543   0.250000   1.008000
10544       CTL2    82  DPPC   C12 10544  -0.100000  12.011000
10545         HL    82  DPPC  H12A 10545   0.250000   1.008000
10546         HL    82  DPPC  H12B 10546   0.250000   1.008000
10547       CTL2    82  DPPC   C11 10547  -0.080000  12.011000
10548       HAL2    82  DPPC  H11A 10548   0.090000   1.008000
10549       HAL2    82  DPPC  H11B 10549   0.090000   1.008000
10550         PL    82  DPPC     P 10550   1.500000  30.974001
10551        O2L    82  DPPC   O13 10551  -0.780000  15.999400
10552        O2L    82  DPPC   O14 10552  -0.780000  15.999400
10553       OSLP    82  DPPC   O11 10553  -0.570000  15.999400
10554       OSLP    82  DPPC   O12 10554  -0.570000  15.999400
10555       CTL2    82  DPPC    C1 10555  -0.080000  12.011000
10556       HAL2    82  DPPC    HA 10556   0.090000   1.008000
10557       HAL2    82  DPPC    HB 10557   0.090000   1.008000
10558       CTL1    82  DPPC    C2 10558   0.170000  12.011000
10559       HAL1    82  DPPC    HS 10559   0.090000   1.008000
10560        OSL    82  DPPC   O21 10560  -0.490000  15.999400
10561         CL    82  DPPC   C21 10561   0.900000  12.011000
10562        OBL    82  DPPC   O22 10562  -0.630000  15.999400
10563       CTL2    82  DPPC   C22 10563  -0.220000  12.011000
10564       HAL2    82  DPPC   H2R 10564   0.090000   1.008000
10565       HAL2    82  DPPC   H2S 10565   0.090000   1.008000
10566       CTL2    82  DPPC    C3 10566   0.080000  12.011000
10567       HAL2    82  DPPC    HX 10567   0.090000   1.008000
10568       HAL2    82  DPPC    HY 10568   0.090000   1.008000
10569        OSL    82  DPPC   O31 10569  -0.490000  15.999400
10570         CL    82  DPPC   C31 10570   0.900000  12.011000
10571        OBL    82  DPPC   O32 10571  -0.630000  15.999400
10572       CTL2    82  DPPC   C32 10572  -0.220000  12.011000
10573       HAL2    82  DPPC   H2X 10573   0.090000   1.008000
10574       HAL2    82  DPPC   H2Y 10574   0.090000   1.008000
10575       CTL2    82  DPPC   C23 10575  -0.180000  12.011000
10576       HAL2    82  DPPC   H3R 10576   0.090000   1.008000
10577       HAL2    82  DPPC   H3S 10577   0.090000   1.008000
10578       CTL2    82  DPPC   C24 10578  -0.180000  12.011000
10579       HAL2    82  DPPC   H4R 10579   0.090000   1.008000
10580       HAL2    82  DPPC   H4S 10580   0.090000   1.008000
10581       CTL2    82  DPPC   C25 10581  -0.180000  12.011000
10582       HAL2    82  DPPC   H5R 10582   0.090000   1.008000
10583       HAL2    82  DPPC   H5S 10583   0.090000   1.008000
10584       CTL2    82  DPPC   C26 10584  -0.180000  12.011000
10585       HAL2    82  DPPC   H6R 10585   0.090000   1.008000
10586       HAL2    82  DPPC   H6S 10586   0.090000   1.008000
10587       CTL2    82  DPPC   C27 10587  -0.180000  12.011000
10588       HAL2    82  DPPC   H7R 10588   0.090000   1.008000
10589       HAL2    82  DPPC   H7S 10589   0.090000   1.008000
10590       CTL2    82  DPPC   C28 10590  -0.180000  12.011000
10591       HAL2    82  DPPC   H8R 10591   0.090000   1.008000
10592       HAL2    82  DPPC   H8S 10592   0.090000   1.008000
10593       CTL2    82  DPPC   C29 10593  -0.180000  12.011000
10594       HAL2    82  DPPC   H9R 10594   0.090000   1.008000
10595       HAL2    82  DPPC   H9S 10595   0.090000   1.008000
10596       CTL2    82  DPPC  C210 10596  -0.180000  12.011000
10597       HAL2    82  DPPC  H10R 10597   0.090000   1.008000
10598       HAL2    82  DPPC  H10S 10598   0.090000   1.008000
10599       CTL2    82  DPPC  C211 10599  -0.180000  12.011000
10600       HAL2    82  DPPC  H11R 10600   0.090000   1.008000
10601       HAL2    82  DPPC  H11S 10601   0.090000   1.008000
10602       CTL2    82  DPPC  C212 10602  -0.180000  12.011000
10603       HAL2    82  DPPC  H12R 10603   0.090000   1.008000
10604       HAL2    82  DPPC  H12S 10604   0.090000   1.008000
10605       CTL2    82  DPPC  C213 10605  -0.180000  12.011000
10606       HAL2    82  DPPC  H13R 10606   0.090000   1.008000
10607       HAL2    82  DPPC  H13S 10607   0.090000   1.008000
10608       CTL2    82  DPPC  C214 10608  -0.180000  12.011000
10609       HAL2    82  DPPC  H14R 10609   0.090000   1.008000
10610       HAL2    82  DPPC  H14S 10610   0.090000   1.008000
10611       CTL2    82  DPPC  C215 10611  -0.180000  12.011000
10612       HAL2    82  DPPC  H15R 10612   0.090000   1.008000
10613       HAL2    82  DPPC  H15S 10613   0.090000   1.008000
10614       CTL3    82  DPPC  C216 10614  -0.270000  12.011000
10615       HAL3    82  DPPC  H16R 10615   0.090000   1.008000
10616       HAL3    82  DPPC  H16S 10616   0.090000   1.008000
10617       HAL3    82  DPPC  H16T 10617   0.090000   1.008000
10618       CTL2    82  DPPC   C33 10618  -0.180000  12.011000
10619       HAL2    82  DPPC   H3X 10619   0.090000   1.008000
10620       HAL2    82  DPPC   H3Y 10620   0.090000   1.008000
10621       CTL2    82  DPPC   C34 10621  -0.180000  12.011000
10622       HAL2    82  DPPC   H4X 10622   0.090000   1.008000
10623       HAL2    82  DPPC   H4Y 10623   0.090000   1.008000
10624       CTL2    82  DPPC   C35 10624  -0.180000  12.011000
10625       HAL2    82  DPPC   H5X 10625   0.090000   1.008000
10626       HAL2    82  DPPC   H5Y 10626   0.090000   1.008000
10627       CTL2    82  DPPC   C36 10627  -0.180000  12.011000
10628       HAL2    82  DPPC   H6X 10628   0.090000   1.008000
10629       HAL2    82  DPPC   H6Y 10629   0.090000   1.008000
10630       CTL2    82  DPPC   C37 10630  -0.180000  12.011000
10631       HAL2    82  DPPC   H7X 10631   0.090000   1.008000
10632       HAL2    82  DPPC   H7Y 10632   0.090000   1.008000
10633       CTL2    82  DPPC   C38 10633  -0.180000  12.011000
10634       HAL2    82  DPPC   H8X 10634   0.090000   1.008000
10635       HAL2    82  DPPC   H8Y 10635   0.090000   1.008000
10636       CTL2    82  DPPC   C39 10636  -0.180000  12.011000
10637       HAL2    82  DPPC   H9X 10637   0.090000   1.008000
10638       HAL2    82  DPPC   H9Y 10638   0.090000   1.008000
10639       CTL2    82  DPPC  C310 10639  -0.180000  12.011000
10640       HAL2    82  DPPC  H10X 10640   0.090000   1.008000
10641       HAL2    82  DPPC  H10Y 10641   0.090000   1.008000
10642       CTL2    82  DPPC  C311 10642  -0.180000  12.011000
10643       HAL2    82  DPPC  H11X 10643   0.090000   1.008000
10644       HAL2    82  DPPC  H11Y 10644   0.090000   1.008000
10645       CTL2    82  DPPC  C312 10645  -0.180000  12.011000
10646       HAL2    82  DPPC  H12X 10646   0.090000   1.008000
10647       HAL2    82  DPPC  H12Y 10647   0.090000   1.008000
10648       CTL2    82  DPPC  C313 10648  -0.180000  12.011000
10649       HAL2    82  DPPC  H13X 10649   0.090000   1.008000
10650       HAL2    82  DPPC  H13Y 10650   0.090000   1.008000
10651       CTL2    82  DPPC  C314 10651  -0.180000  12.011000
10652       HAL2    82  DPPC  H14X 10652   0.090000   1.008000
10653       HAL2    82  DPPC  H14Y 10653   0.090000   1.008000
10654       CTL2    82  DPPC  C315 10654  -0.180000  12.011000
10655       HAL2    82  DPPC  H15X 10655   0.090000   1.008000
10656       HAL2    82  DPPC  H15Y 10656   0.090000   1.008000
10657       CTL3    82  DPPC  C316 10657  -0.270000  12.011000
10658       HAL3    82  DPPC  H16X 10658   0.090000   1.008000
10659       HAL3    82  DPPC  H16Y 10659   0.090000   1.008000
10660       HAL3    82  DPPC  H16Z 10660   0.090000   1.008000
10661        NTL    83  DPPC     N 10661  -0.600000  14.007000
10662       CTL5    83  DPPC   C13 10662  -0.350000  12.011000
10663         HL    83  DPPC  H13A 10663   0.250000   1.008000
10664         HL    83  DPPC  H13B 10664   0.250000   1.008000
10665         HL    83  DPPC  H13C 10665   0.250000   1.008000
10666       CTL5    83  DPPC   C14 10666  -0.350000  12.011000
10667         HL    83  DPPC  H14A 10667   0.250000   1.008000
10668         HL    83  DPPC  H14B 10668   0.250000   1.008000
10669         HL    83  DPPC  H14C 10669   0.250000   1.008000
10670       CTL5    83  DPPC   C15 10670  -0.350000  12.011000
10671         HL    83  DPPC  H15A 10671   0.250000   1.008000
10672         HL    83  DPPC  H15B 10672   0.250000   1.008000
10673         HL    83  DPPC  H15C 10673   0.250000   1.008000
10674       CTL2    83  DPPC   C12 10674  -0.100000  12.011000
10675         HL    83  DPPC  H12A 10675   0.250000   1.008000
10676         HL    83  DPPC  H12B 10676   0.250000   1.008000
10677       CTL2    83  DPPC   C11 10677  -0.080000  12.011000
10678       HAL2    83  DPPC  H11A 10678   0.090000   1.008000
10679       HAL2    83  DPPC  H11B 10679   0.090000   1.008000
10680         PL    83  DPPC     P 10680   1.500000  30.974001
10681        O2L    83  DPPC   O13 10681  -0.780000  15.999400
10682        O2L    83  DPPC   O14 10682  -0.780000  15.999400
10683       OSLP    83  DPPC   O11 10683  -0.570000  15.999400
10684       OSLP    83  DPPC   O12 10684  -0.570000  15.999400
10685       CTL2    83  DPPC    C1 10685  -0.080000  12.011000
10686       HAL2    83  DPPC    HA 10686   0.090000   1.008000
10687       HAL2    83  DPPC    HB 10687   0.090000   1.008000
10688       CTL1    83  DPPC    C2 10688   0.170000  12.011000
10689       HAL1    83  DPPC    HS 10689   0.090000   1.008000
10690        OSL    83  DPPC   O21 10690  -0.490000  15.999400
10691         CL    83  DPPC   C21 10691   0.900000  12.011000
10692        OBL    83  DPPC   O22 10692  -0.630000  15.999400
10693       CTL2    83  DPPC   C22 10693  -0.220000  12.011000
10694       HAL2    83  DPPC   H2R 10694   0.090000   1.008000
10695       HAL2    83  DPPC   H2S 10695   0.090000   1.008000
10696       CTL2    83  DPPC    C3 10696   0.080000  12.011000
10697       HAL2    83  DPPC    HX 10697   0.090000   1.008000
10698       HAL2    83  DPPC    HY 10698   0.090000   1.008000
10699        OSL    83  DPPC   O31 10699  -0.490000  15.999400
10700         CL    83  DPPC   C31 10700   0.900000  12.011000
10701        OBL    83  DPPC   O32 10701  -0.630000  15.999400
10702       CTL2    83  DPPC   C32 10702  -0.220000  12.011000
10703       HAL2    83  DPPC   H2X 10703   0.090000   1.008000
10704       HAL2    83  DPPC   H2Y 10704   0.090000   1.008000
10705       CTL2    83  DPPC   C23 10705  -0.180000  12.011000
10706       HAL2    83  DPPC   H3R 10706   0.090000   1.008000
10707       HAL2    83  DPPC   H3S 10707   0.090000   1.008000
10708       CTL2    83  DPPC   C24 10708  -0.180000  12.011000
10709       HAL2    83  DPPC   H4R 10709   0.090000   1.008000
10710       HAL2    83  DPPC   H4S 10710   0.090000   1.008000
10711       CTL2    83  DPPC   C25 10711  -0.180000  12.011000
10712       HAL2    83  DPPC   H5R 10712   0.090000   1.008000
10713       HAL2    83  DPPC   H5S 10713   0.090000   1.008000
10714       CTL2    83  DPPC   C26 10714  -0.180000  12.011000
10715       HAL2    83  DPPC   H6R 10715   0.090000   1.008000
10716       HAL2    83  DPPC   H6S 10716   0.090000   1.008000
10717       CTL2    83  DPPC   C27 10717  -0.180000  12.011000
10718       HAL2    83  DPPC   H7R 10718   0.090000   1.008000
10719       HAL2    83  DPPC   H7S 10719   0.090000   1.008000
10720       CTL2    83  DPPC   C28 10720  -0.180000  12.011000
10721       HAL2    83  DPPC   H8R 10721   0.090000   1.008000
10722       HAL2    83  DPPC   H8S 10722   0.090000   1.008000
10723       CTL2    83  DPPC   C29 10723  -0.180000  12.011000
10724       HAL2    83  DPPC   H9R 10724   0.090000   1.008000
10725       HAL2    83  DPPC   H9S 10725   0.090000   1.008000
10726       CTL2    83  DPPC  C210 10726  -0.180000  12.011000
10727       HAL2    83  DPPC  H10R 10727   0.090000   1.008000
10728       HAL2    83  DPPC  H10S 10728   0.090000   1.008000
10729       CTL2    83  DPPC  C211 10729  -0.180000  12.011000
10730       HAL2    83  DPPC  H11R 10730   0.090000   1.008000
10731       HAL2    83  DPPC  H11S 10731   0.090000   1.008000
10732       CTL2    83  DPPC  C212 10732  -0.180000  12.011000
10733       HAL2    83  DPPC  H12R 10733   0.090000   1.008000
10734       HAL2    83  DPPC  H12S 10734   0.090000   1.008000
10735       CTL2    83  DPPC  C213 10735  -0.180000  12.011000
10736       HAL2    83  DPPC  H13R 10736   0.090000   1.008000
10737       HAL2    83  DPPC  H13S 10737   0.090000   1.008000
10738       CTL2    83  DPPC  C214 10738  -0.180000  12.011000
10739       HAL2    83  DPPC  H14R 10739   0.090000   1.008000
10740       HAL2    83  DPPC  H14S 10740   0.090000   1.008000
10741       CTL2    83  DPPC  C215 10741  -0.180000  12.011000
10742       HAL2    83  DPPC  H15R 10742   0.090000   1.008000
10743       HAL2    83  DPPC  H15S 10743   0.090000   1.008000
10744       CTL3    83  DPPC  C216 10744  -0.270000  12.011000
10745       HAL3    83  DPPC  H16R 10745   0.090000   1.008000
10746       HAL3    83  DPPC  H16S 10746   0.090000   1.008000
10747       HAL3    83  DPPC  H16T 10747   0.090000   1.008000
10748       CTL2    83  DPPC   C33 10748  -0.180000  12.011000
10749       HAL2    83  DPPC   H3X 10749   0.090000   1.008000
10750       HAL2    83  DPPC   H3Y 10750   0.090000   1.008000
10751       CTL2    83  DPPC   C34 10751  -0.180000  12.011000
10752       HAL2    83  DPPC   H4X 10752   0.090000   1.008000
10753       HAL2    83  DPPC   H4Y 10753   0.090000   1.008000
10754       CTL2    83  DPPC   C35 10754  -0.180000  12.011000
10755       HAL2    83  DPPC   H5X 10755   0.090000   1.008000
10756       HAL2    83  DPPC   H5Y 10756   0.090000   1.008000
10757       CTL2    83  DPPC   C36 10757  -0.180000  12.011000
10758       HAL2    83  DPPC   H6X 10758   0.090000   1.008000
10759       HAL2    83  DPPC   H6Y 10759   0.090000   1.008000
10760       CTL2    83  DPPC   C37 10760  -0.180000  12.011000
10761       HAL2    83  DPPC   H7X 10761   0.090000   1.008000
10762       HAL2    83  DPPC   H7Y 10762   0.090000   1.008000
10763       CTL2    83  DPPC   C38 10763  -0.180000  12.011000
10764       HAL2    83  DPPC   H8X 10764   0.090000   1.008000
10765       HAL2    83  DPPC   H8Y 10765   0.090000   1.008000
10766       CTL2    83  DPPC   C39 10766  -0.180000  12.011000
10767       HAL2    83  DPPC   H9X 10767   0.090000   1.008000
10768       HAL2    83  DPPC   H9Y 10768   0.090000   1.008000
10769       CTL2    83  DPPC  C310 10769  -0.180000  12.011000
10770       HAL2    83  DPPC  H10X 10770   0.090000   1.008000
10771       HAL2    83  DPPC  H10Y 10771   0.090000   1.008000
10772       CTL2    83  DPPC  C311 10772  -0.180000  12.011000
10773       HAL2    83  DPPC  H11X 10773   0.090000   1.008000
10774       HAL2    83  DPPC  H11Y 10774   0.090000   1.008000
10775       CTL2    83  DPPC  C312 10775  -0.180000  12.011000
10776       HAL2    83  DPPC  H12X 10776   0.090000   1.008000
10777       HAL2    83  DPPC  H12Y 10777   0.090000   1.008000
10778       CTL2    83  DPPC  C313 10778  -0.180000  12.011000
10779       HAL2    83  DPPC  H13X 10779   0.090000   1.008000
10780       HAL2    83  DPPC  H13Y 10780   0.090000   1.008000
10781       CTL2    83  DPPC  C314 10781  -0.180000  12.011000
10782       HAL2    83  DPPC  H14X 10782   0.090000   1.008000
10783       HAL2    83  DPPC  H14Y 10783   0.090000   1.008000
10784       CTL2    83  DPPC  C315 10784  -0.180000  12.011000
10785       HAL2    83  DPPC  H15X 10785   0.090000   1.008000
10786       HAL2    83  DPPC  H15Y 10786   0.090000   1.008000
10787       CTL3    83  DPPC  C316 10787  -0.270000  12.011000
10788       HAL3    83  DPPC  H16X 10788   0.090000   1.008000
10789       HAL3    83  DPPC  H16Y 10789   0.090000   1.008000
10790       HAL3    83  DPPC  H16Z 10790   0.090000   1.008000
10791        NTL    84  DPPC     N 10791  -0.600000  14.007000
10792       CTL5    84  DPPC   C13 10792  -0.350000  12.011000
10793         HL    84  DPPC  H13A 10793   0.250000   1.008000
10794         HL    84  DPPC  H13B 10794   0.250000   1.008000
10795         HL    84  DPPC  H13C 10795   0.250000   1.008000
10796       CTL5    84  DPPC   C14 10796  -0.350000  12.011000
10797         HL    84  DPPC  H14A 10797   0.250000   1.008000
10798         HL    84  DPPC  H14B 10798   0.250000   1.008000
10799         HL    84  DPPC  H14C 10799   0.250000   1.008000
10800       CTL5    84  DPPC   C15 10800  -0.350000  12.011000
10801         HL    84  DPPC  H15A 10801   0.250000   1.008000
10802         HL    84  DPPC  H15B 10802   0.250000   1.008000
10803         HL    84  DPPC  H15C 10803   0.250000   1.008000
10804       CTL2    84  DPPC   C12 10804  -0.100000  12.011000
10805         HL    84  DPPC  H12A 10805   0.250000   1.008000
10806         HL    84  DPPC  H12B 10806   0.250000   1.008000
10807       CTL2    84  DPPC   C11 10807  -0.080000  12.011000
10808       HAL2    84  DPPC  H11A 10808   0.090000   1.008000
10809       HAL2    84  DPPC  H11B 10809   0.090000   1.008000
10810         PL    84  DPPC     P 10810   1.500000  30.974001
10811        O2L    84  DPPC   O13 10811  -0.780000  15.999400
10812        O2L    84  DPPC   O14 10812  -0.780000  15.999400
10813       OSLP    84  DPPC   O11 10813  -0.570000  15.999400
10814       OSLP    84  DPPC   O12 10814  -0.570000  15.999400
10815       CTL2    84  DPPC    C1 10815  -0.080000  12.011000
10816       HAL2    84  DPPC    HA 10816   0.090000   1.008000
10817       HAL2    84  DPPC    HB 10817   0.090000   1.008000
10818       CTL1    84  DPPC    C2 10818   0.170000  12.011000
10819       HAL1    84  DPPC    HS 10819   0.090000   1.008000
10820        OSL    84  DPPC   O21 10820  -0.490000  15.999400
10821         CL    84  DPPC   C21 10821   0.900000  12.011000
10822        OBL    84  DPPC   O22 10822  -0.630000  15.999400
10823       CTL2    84  DPPC   C22 10823  -0.220000  12.011000
10824       HAL2    84  DPPC   H2R 10824   0.090000   1.008000
10825       HAL2    84  DPPC   H2S 10825   0.090000   1.008000
10826       CTL2    84  DPPC    C3 10826   0.080000  12.011000
10827       HAL2    84  DPPC    HX 10827   0.090000   1.008000
10828       HAL2    84  DPPC    HY 10828   0.090000   1.008000
10829        OSL    84  DPPC   O31 10829  -0.490000  15.999400
10830         CL    84  DPPC   C31 10830   0.900000  12.011000
10831        OBL    84  DPPC   O32 10831  -0.630000  15.999400
10832       CTL2    84  DPPC   C32 10832  -0.220000  12.011000
10833       HAL2    84  DPPC   H2X 10833   0.090000   1.008000
10834       HAL2    84  DPPC   H2Y 10834   0.090000   1.008000
10835       CTL2    84  DPPC   C23 10835  -0.180000  12.011000
10836       HAL2    84  DPPC   H3R 10836   0.090000   1.008000
10837       HAL2    84  DPPC   H3S 10837   0.090000   1.008000
10838       CTL2    84  DPPC   C24 10838  -0.180000  12.011000
10839       HAL2    84  DPPC   H4R 10839   0.090000   1.008000
10840       HAL2    84  DPPC   H4S 10840   0.090000   1.008000
10841       CTL2    84  DPPC   C25 10841  -0.180000  12.011000
10842       HAL2    84  DPPC   H5R 10842   0.090000   1.008000
10843       HAL2    84  DPPC   H5S 10843   0.090000   1.008000
10844       CTL2    84  DPPC   C26 10844  -0.180000  12.011000
10845       HAL2    84  DPPC   H6R 10845   0.090000   1.008000
10846       HAL2    84  DPPC   H6S 10846   0.090000   1.008000
10847       CTL2    84  DPPC   C27 10847  -0.180000  12.011000
10848       HAL2    84  DPPC   H7R 10848   0.090000   1.008000
10849       HAL2    84  DPPC   H7S 10849   0.090000   1.008000
10850       CTL2    84  DPPC   C28 10850  -0.180000  12.011000
10851       HAL2    84  DPPC   H8R 10851   0.090000   1.008000
10852       HAL2    84  DPPC   H8S 10852   0.090000   1.008000
10853       CTL2    84  DPPC   C29 10853  -0.180000  12.011000
10854       HAL2    84  DPPC   H9R 10854   0.090000   1.008000
10855       HAL2    84  DPPC   H9S 10855   0.090000   1.008000
10856       CTL2    84  DPPC  C210 10856  -0.180000  12.011000
10857       HAL2    84  DPPC  H10R 10857   0.090000   1.008000
10858       HAL2    84  DPPC  H10S 10858   0.090000   1.008000
10859       CTL2    84  DPPC  C211 10859  -0.180000  12.011000
10860       HAL2    84  DPPC  H11R 10860   0.090000   1.008000
10861       HAL2    84  DPPC  H11S 10861   0.090000   1.008000
10862       CTL2    84  DPPC  C212 10862  -0.180000  12.011000
10863       HAL2    84  DPPC  H12R 10863   0.090000   1.008000
10864       HAL2    84  DPPC  H12S 10864   0.090000   1.008000
10865       CTL2    84  DPPC  C213 10865  -0.180000  12.011000
10866       HAL2    84  DPPC  H13R 10866   0.090000   1.008000
10867       HAL2    84  DPPC  H13S 10867   0.090000   1.008000
10868       CTL2    84  DPPC  C214 10868  -0.180000  12.011000
10869       HAL2    84  DPPC  H14R 10869   0.090000   1.008000
10870       HAL2    84  DPPC  H14S 10870   0.090000   1.008000
10871       CTL2    84  DPPC  C215 10871  -0.180000  12.011000
10872       HAL2    84  DPPC  H15R 10872   0.090000   1.008000
10873       HAL2    84  DPPC  H15S 10873   0.090000   1.008000
10874       CTL3    84  DPPC  C216 10874  -0.270000  12.011000
10875       HAL3    84  DPPC  H16R 10875   0.090000   1.008000
10876       HAL3    84  DPPC  H16S 10876   0.090000   1.008000
10877       HAL3    84  DPPC  H16T 10877   0.090000   1.008000
10878       CTL2    84  DPPC   C33 10878  -0.180000  12.011000
10879       HAL2    84  DPPC   H3X 10879   0.090000   1.008000
10880       HAL2    84  DPPC   H3Y 10880   0.090000   1.008000
10881       CTL2    84  DPPC   C34 10881  -0.180000  12.011000
10882       HAL2    84  DPPC   H4X 10882   0.090000   1.008000
10883       HAL2    84  DPPC   H4Y 10883   0.090000   1.008000
10884       CTL2    84  DPPC   C35 10884  -0.180000  12.011000
10885       HAL2    84  DPPC   H5X 10885   0.090000   1.008000
10886       HAL2    84  DPPC   H5Y 10886   0.090000   1.008000
10887       CTL2    84  DPPC   C36 10887  -0.180000  12.011000
10888       HAL2    84  DPPC   H6X 10888   0.090000   1.008000
10889       HAL2    84  DPPC   H6Y 10889   0.090000   1.008000
10890       CTL2    84  DPPC   C37 10890  -0.180000  12.011000
10891       HAL2    84  DPPC   H7X 10891   0.090000   1.008000
10892       HAL2    84  DPPC   H7Y 10892   0.090000   1.008000
10893       CTL2    84  DPPC   C38 10893  -0.180000  12.011000
10894       HAL2    84  DPPC   H8X 10894   0.090000   1.008000
10895       HAL2    84  DPPC   H8Y 10895   0.090000   1.008000
10896       CTL2    84  DPPC   C39 10896  -0.180000  12.011000
10897       HAL2    84  DPPC   H9X 10897   0.090000   1.008000
10898       HAL2    84  DPPC   H9Y 10898   0.090000   1.008000
10899       CTL2    84  DPPC  C310 10899  -0.180000  12.011000
10900       HAL2    84  DPPC  H10X 10900   0.090000   1.008000
10901       HAL2    84  DPPC  H10Y 10901   0.090000   1.008000
10902       CTL2    84  DPPC  C311 10902  -0.180000  12.011000
10903       HAL2    84  DPPC  H11X 10903   0.090000   1.008000
10904       HAL2    84  DPPC  H11Y 10904   0.090000   1.008000
10905       CTL2    84  DPPC  C312 10905  -0.180000  12.011000
10906       HAL2    84  DPPC  H12X 10906   0.090000   1.008000
10907       HAL2    84  DPPC  H12Y 10907   0.090000   1.008000
10908       CTL2    84  DPPC  C313 10908  -0.180000  12.011000
10909       HAL2    84  DPPC  H13X 10909   0.090000   1.008000
10910       HAL2    84  DPPC  H13Y 10910   0.090000   1.008000
10911       CTL2    84  DPPC  C314 10911  -0.180000  12.011000
10912       HAL2    84  DPPC  H14X 10912   0.090000   1.008000
10913       HAL2    84  DPPC  H14Y 10913   0.090000   1.008000
10914       CTL2    84  DPPC  C315 10914  -0.180000  12.011000
10915       HAL2    84  DPPC  H15X 10915   0.090000   1.008000
10916       HAL2    84  DPPC  H15Y 10916   0.090000   1.008000
10917       CTL3    84  DPPC  C316 10917  -0.270000  12.011000
10918       HAL3    84  DPPC  H16X 10918   0.090000   1.008000
10919       HAL3    84  DPPC  H16Y 10919   0.090000   1.008000
10920       HAL3    84  DPPC  H16Z 10920   0.090000   1.008000
10921        NTL    85  DPPC     N 10921  -0.600000  14.007000
10922       CTL5    85  DPPC   C13 10922  -0.350000  12.011000
10923         HL    85  DPPC  H13A 10923   0.250000   1.008000
10924         HL    85  DPPC  H13B 10924   0.250000   1.008000
10925         HL    85  DPPC  H13C 10925   0.250000   1.008000
10926       CTL5    85  DPPC   C14 10926  -0.350000  12.011000
10927         HL    85  DPPC  H14A 10927   0.250000   1.008000
10928         HL    85  DPPC  H14B 10928   0.250000   1.008000
10929         HL    85  DPPC  H14C 10929   0.250000   1.008000
10930       CTL5    85  DPPC   C15 10930  -0.350000  12.011000
10931         HL    85  DPPC  H15A 10931   0.250000   1.008000
10932         HL    85  DPPC  H15B 10932   0.250000   1.008000
10933         HL    85  DPPC  H15C 10933   0.250000   1.008000
10934       CTL2    85  DPPC   C12 10934  -0.100000  12.011000
10935         HL    85  DPPC  H12A 10935   0.250000   1.008000
10936         HL    85  DPPC  H12B 10936   0.250000   1.008000
10937       CTL2    85  DPPC   C11 10937  -0.080000  12.011000
10938       HAL2    85  DPPC  H11A 10938   0.090000   1.008000
10939       HAL2    85  DPPC  H11B 10939   0.090000   1.008000
10940         PL    85  DPPC     P 10940   1.500000  30.974001
10941        O2L    85  DPPC   O13 10941  -0.780000  15.999400
10942        O2L    85  DPPC   O14 10942  -0.780000  15.999400
10943       OSLP    85  DPPC   O11 10943  -0.570000  15.999400
10944       OSLP    85  DPPC   O12 10944  -0.570000  15.999400
10945       CTL2    85  DPPC    C1 10945  -0.080000  12.011000
10946       HAL2    85  DPPC    HA 10946   0.090000   1.008000
10947       HAL2    85  DPPC    HB 10947   0.090000   1.008000
10948       CTL1    85  DPPC    C2 10948   0.170000  12.011000
10949       HAL1    85  DPPC    HS 10949   0.090000   1.008000
10950        OSL    85  DPPC   O21 10950  -0.490000  15.999400
10951         CL    85  DPPC   C21 10951   0.900000  12.011000
10952        OBL    85  DPPC   O22 10952  -0.630000  15.999400
10953       CTL2    85  DPPC   C22 10953  -0.220000  12.011000
10954       HAL2    85  DPPC   H2R 10954   0.090000   1.008000
10955       HAL2    85  DPPC   H2S 10955   0.090000   1.008000
10956       CTL2    85  DPPC    C3 10956   0.080000  12.011000
10957       HAL2    85  DPPC    HX 10957   0.090000   1.008000
10958       HAL2    85  DPPC    HY 10958   0.090000   1.008000
10959        OSL    85  DPPC   O31 10959  -0.490000  15.999400
10960         CL    85  DPPC   C31 10960   0.900000  12.011000
10961        OBL    85  DPPC   O32 10961  -0.630000  15.999400
10962       CTL2    85  DPPC   C32 10962  -0.220000  12.011000
10963       HAL2    85  DPPC   H2X 10963   0.090000   1.008000
10964       HAL2    85  DPPC   H2Y 10964   0.090000   1.008000
10965       CTL2    85  DPPC   C23 10965  -0.180000  12.011000
10966       HAL2    85  DPPC   H3R 10966   0.090000   1.008000
10967       HAL2    85  DPPC   H3S 10967   0.090000   1.008000
10968       CTL2    85  DPPC   C24 10968  -0.180000  12.011000
10969       HAL2    85  DPPC   H4R 10969   0.090000   1.008000
10970       HAL2    85  DPPC   H4S 10970   0.090000   1.008000
10971       CTL2    85  DPPC   C25 10971  -0.180000  12.011000
10972       HAL2    85  DPPC   H5R 10972   0.090000   1.008000
10973       HAL2    85  DPPC   H5S 10973   0.090000   1.008000
10974       CTL2    85  DPPC   C26 10974  -0.180000  12.011000
10975       HAL2    85  DPPC   H6R 10975   0.090000   1.008000
10976       HAL2    85  DPPC   H6S 10976   0.090000   1.008000
10977       CTL2    85  DPPC   C27 10977  -0.180000  12.011000
10978       HAL2    85  DPPC   H7R 10978   0.090000   1.008000
10979       HAL2    85  DPPC   H7S 10979   0.090000   1.008000
10980       CTL2    85  DPPC   C28 10980  -0.180000  12.011000
10981       HAL2    85  DPPC   H8R 10981   0.090000   1.008000
10982       HAL2    85  DPPC   H8S 10982   0.090000   1.008000
10983       CTL2    85  DPPC   C29 10983  -0.180000  12.011000
10984       HAL2    85  DPPC   H9R 10984   0.090000   1.008000
10985       HAL2    85  DPPC   H9S 10985   0.090000   1.008000
10986       CTL2    85  DPPC  C210 10986  -0.180000  12.011000
10987       HAL2    85  DPPC  H10R 10987   0.090000   1.008000
10988       HAL2    85  DPPC  H10S 10988   0.090000   1.008000
10989       CTL2    85  DPPC  C211 10989  -0.180000  12.011000
10990       HAL2    85  DPPC  H11R 10990   0.090000   1.008000
10991       HAL2    85  DPPC  H11S 10991   0.090000   1.008000
10992       CTL2    85  DPPC  C212 10992  -0.180000  12.011000
10993       HAL2    85  DPPC  H12R 10993   0.090000   1.008000
10994       HAL2    85  DPPC  H12S 10994   0.090000   1.008000
10995       CTL2    85  DPPC  C213 10995  -0.180000  12.011000
10996       HAL2    85  DPPC  H13R 10996   0.090000   1.008000
10997       HAL2    85  DPPC  H13S 10997   0.090000   1.008000
10998       CTL2    85  DPPC  C214 10998  -0.180000  12.011000
10999       HAL2    85  DPPC  H14R 10999   0.090000   1.008000
11000       HAL2    85  DPPC  H14S 11000   0.090000   1.008000
11001       CTL2    85  DPPC  C215 11001  -0.180000  12.011000
11002       HAL2    85  DPPC  H15R 11002   0.090000   1.008000
11003       HAL2    85  DPPC  H15S 11003   0.090000   1.008000
11004       CTL3    85  DPPC  C216 11004  -0.270000  12.011000
11005       HAL3    85  DPPC  H16R 11005   0.090000   1.008000
11006       HAL3    85  DPPC  H16S 11006   0.090000   1.008000
11007       HAL3    85  DPPC  H16T 11007   0.090000   1.008000
11008       CTL2    85  DPPC   C33 11008  -0.180000  12.011000
11009       HAL2    85  DPPC   H3X 11009   0.090000   1.008000
11010       HAL2    85  DPPC   H3Y 11010   0.090000   1.008000
11011       CTL2    85  DPPC   C34 11011  -0.180000  12.011000
11012       HAL2    85  DPPC   H4X 11012   0.090000   1.008000
11013       HAL2    85  DPPC   H4Y 11013   0.090000   1.008000
11014       CTL2    85  DPPC   C35 11014  -0.180000  12.011000
11015       HAL2    85  DPPC   H5X 11015   0.090000   1.008000
11016       HAL2    85  DPPC   H5Y 11016   0.090000   1.008000
11017       CTL2    85  DPPC   C36 11017  -0.180000  12.011000
11018       HAL2    85  DPPC   H6X 11018   0.090000   1.008000
11019       HAL2    85  DPPC   H6Y 11019   0.090000   1.008000
11020       CTL2    85  DPPC   C37 11020  -0.180000  12.011000
11021       HAL2    85  DPPC   H7X 11021   0.090000   1.008000
11022       HAL2    85  DPPC   H7Y 11022   0.090000   1.008000
11023       CTL2    85  DPPC   C38 11023  -0.180000  12.011000
11024       HAL2    85  DPPC   H8X 11024   0.090000   1.008000
11025       HAL2    85  DPPC   H8Y 11025   0.090000   1.008000
11026       CTL2    85  DPPC   C39 11026  -0.180000  12.011000
11027       HAL2    85  DPPC   H9X 11027   0.090000   1.008000
11028       HAL2    85  DPPC   H9Y 11028   0.090000   1.008000
11029       CTL2    85  DPPC  C310 11029  -0.180000  12.011000
11030       HAL2    85  DPPC  H10X 11030   0.090000   1.008000
11031       HAL2    85  DPPC  H10Y 11031   0.090000   1.008000
11032       CTL2    85  DPPC  C311 11032  -0.180000  12.011000
11033       HAL2    85  DPPC  H11X 11033   0.090000   1.008000
11034       HAL2    85  DPPC  H11Y 11034   0.090000   1.008000
11035       CTL2    85  DPPC  C312 11035  -0.180000  12.011000
11036       HAL2    85  DPPC  H12X 11036   0.090000   1.008000
11037       HAL2    85  DPPC  H12Y 11037   0.090000   1.008000
11038       CTL2    85  DPPC  C313 11038  -0.180000  12.011000
11039       HAL2    85  DPPC  H13X 11039   0.090000   1.008000
11040       HAL2    85  DPPC  H13Y 11040   0.090000   1.008000
11041       CTL2    85  DPPC  C314 11041  -0.180000  12.011000
11042       HAL2    85  DPPC  H14X 11042   0.090000   1.008000
11043       HAL2    85  DPPC  H14Y 11043   0.090000   1.008000
11044       CTL2    85  DPPC  C315 11044  -0.180000  12.011000
11045       HAL2    85  DPPC  H15X 11045   0.090000   1.008000
11046       HAL2    85  DPPC  H15Y 11046   0.090000   1.008000
11047       CTL3    85  DPPC  C316 11047  -0.270000  12.011000
11048       HAL3    85  DPPC  H16X 11048   0.090000   1.008000
11049       HAL3    85  DPPC  H16Y 11049   0.090000   1.008000
11050       HAL3    85  DPPC  H16Z 11050   0.090000   1.008000
11051        NTL    86  DPPC     N 11051  -0.600000  14.007000
11052       CTL5    86  DPPC   C13 11052  -0.350000  12.011000
11053         HL    86  DPPC  H13A 11053   0.250000   1.008000
11054         HL    86  DPPC  H13B 11054   0.250000   1.008000
11055         HL    86  DPPC  H13C 11055   0.250000   1.008000
11056       CTL5    86  DPPC   C14 11056  -0.350000  12.011000
11057         HL    86  DPPC  H14A 11057   0.250000   1.008000
11058         HL    86  DPPC  H14B 11058   0.250000   1.008000
11059         HL    86  DPPC  H14C 11059   0.250000   1.008000
11060       CTL5    86  DPPC   C15 11060  -0.350000  12.011000
11061         HL    86  DPPC  H15A 11061   0.250000   1.008000
11062         HL    86  DPPC  H15B 11062   0.250000   1.008000
11063         HL    86  DPPC  H15C 11063   0.250000   1.008000
11064       CTL2    86  DPPC   C12 11064  -0.100000  12.011000
11065         HL    86  DPPC  H12A 11065   0.250000   1.008000
11066         HL    86  DPPC  H12B 11066   0.250000   1.008000
11067       CTL2    86  DPPC   C11 11067  -0.080000  12.011000
11068       HAL2    86  DPPC  H11A 11068   0.090000   1.008000
11069       HAL2    86  DPPC  H11B 11069   0.090000   1.008000
11070         PL    86  DPPC     P 11070   1.500000  30.974001
11071        O2L    86  DPPC   O13 11071  -0.780000  15.999400
11072        O2L    86  DPPC   O14 11072  -0.780000  15.999400
11073       OSLP    86  DPPC   O11 11073  -0.570000  15.999400
11074       OSLP    86  DPPC   O12 11074  -0.570000  15.999400
11075       CTL2    86  DPPC    C1 11075  -0.080000  12.011000
11076       HAL2    86  DPPC    HA 11076   0.090000   1.008000
11077       HAL2    86  DPPC    HB 11077   0.090000   1.008000
11078       CTL1    86  DPPC    C2 11078   0.170000  12.011000
11079       HAL1    86  DPPC    HS 11079   0.090000   1.008000
11080        OSL    86  DPPC   O21 11080  -0.490000  15.999400
11081         CL    86  DPPC   C21 11081   0.900000  12.011000
11082        OBL    86  DPPC   O22 11082  -0.630000  15.999400
11083       CTL2    86  DPPC   C22 11083  -0.220000  12.011000
11084       HAL2    86  DPPC   H2R 11084   0.090000   1.008000
11085       HAL2    86  DPPC   H2S 11085   0.090000   1.008000
11086       CTL2    86  DPPC    C3 11086   0.080000  12.011000
11087       HAL2    86  DPPC    HX 11087   0.090000   1.008000
11088       HAL2    86  DPPC    HY 11088   0.090000   1.008000
11089        OSL    86  DPPC   O31 11089  -0.490000  15.999400
11090         CL    86  DPPC   C31 11090   0.900000  12.011000
11091        OBL    86  DPPC   O32 11091  -0.630000  15.999400
11092       CTL2    86  DPPC   C32 11092  -0.220000  12.011000
11093       HAL2    86  DPPC   H2X 11093   0.090000   1.008000
11094       HAL2    86  DPPC   H2Y 11094   0.090000   1.008000
11095       CTL2    86  DPPC   C23 11095  -0.180000  12.011000
11096       HAL2    86  DPPC   H3R 11096   0.090000   1.008000
11097       HAL2    86  DPPC   H3S 11097   0.090000   1.008000
11098       CTL2    86  DPPC   C24 11098  -0.180000  12.011000
11099       HAL2    86  DPPC   H4R 11099   0.090000   1.008000
11100       HAL2    86  DPPC   H4S 11100   0.090000   1.008000
11101       CTL2    86  DPPC   C25 11101  -0.180000  12.011000
11102       HAL2    86  DPPC   H5R 11102   0.090000   1.008000
11103       HAL2    86  DPPC   H5S 11103   0.090000   1.008000
11104       CTL2    86  DPPC   C26 11104  -0.180000  12.011000
11105       HAL2    86  DPPC   H6R 11105   0.090000   1.008000
11106       HAL2    86  DPPC   H6S 11106   0.090000   1.008000
11107       CTL2    86  DPPC   C27 11107  -0.180000  12.011000
11108       HAL2    86  DPPC   H7R 11108   0.090000   1.008000
11109       HAL2    86  DPPC   H7S 11109   0.090000   1.008000
11110       CTL2    86  DPPC   C28 11110  -0.180000  12.011000
11111       HAL2    86  DPPC   H8R 11111   0.090000   1.008000
11112       HAL2    86  DPPC   H8S 11112   0.090000   1.008000
11113       CTL2    86  DPPC   C29 11113  -0.180000  12.011000
11114       HAL2    86  DPPC   H9R 11114   0.090000   1.008000
11115       HAL2    86  DPPC   H9S 11115   0.090000   1.008000
11116       CTL2    86  DPPC  C210 11116  -0.180000  12.011000
11117       HAL2    86  DPPC  H10R 11117   0.090000   1.008000
11118       HAL2    86  DPPC  H10S 11118   0.090000   1.008000
11119       CTL2    86  DPPC  C211 11119  -0.180000  12.011000
11120       HAL2    86  DPPC  H11R 11120   0.090000   1.008000
11121       HAL2    86  DPPC  H11S 11121   0.090000   1.008000
11122       CTL2    86  DPPC  C212 11122  -0.180000  12.011000
11123       HAL2    86  DPPC  H12R 11123   0.090000   1.008000
11124       HAL2    86  DPPC  H12S 11124   0.090000   1.008000
11125       CTL2    86  DPPC  C213 11125  -0.180000  12.011000
11126       HAL2    86  DPPC  H13R 11126   0.090000   1.008000
11127       HAL2    86  DPPC  H13S 11127   0.090000   1.008000
11128       CTL2    86  DPPC  C214 11128  -0.180000  12.011000
11129       HAL2    86  DPPC  H14R 11129   0.090000   1.008000
11130       HAL2    86  DPPC  H14S 11130   0.090000   1.008000
11131       CTL2    86  DPPC  C215 11131  -0.180000  12.011000
11132       HAL2    86  DPPC  H15R 11132   0.090000   1.008000
11133       HAL2    86  DPPC  H15S 11133   0.090000   1.008000
11134       CTL3    86  DPPC  C216 11134  -0.270000  12.011000
11135       HAL3    86  DPPC  H16R 11135   0.090000   1.008000
11136       HAL3    86  DPPC  H16S 11136   0.090000   1.008000
11137       HAL3    86  DPPC  H16T 11137   0.090000   1.008000
11138       CTL2    86  DPPC   C33 11138  -0.180000  12.011000
11139       HAL2    86  DPPC   H3X 11139   0.090000   1.008000
11140       HAL2    86  DPPC   H3Y 11140   0.090000   1.008000
11141       CTL2    86  DPPC   C34 11141  -0.180000  12.011000
11142       HAL2    86  DPPC   H4X 11142   0.090000   1.008000
11143       HAL2    86  DPPC   H4Y 11143   0.090000   1.008000
11144       CTL2    86  DPPC   C35 11144  -0.180000  12.011000
11145       HAL2    86  DPPC   H5X 11145   0.090000   1.008000
11146       HAL2    86  DPPC   H5Y 11146   0.090000   1.008000
11147       CTL2    86  DPPC   C36 11147  -0.180000  12.011000
11148       HAL2    86  DPPC   H6X 11148   0.090000   1.008000
11149       HAL2    86  DPPC   H6Y 11149   0.090000   1.008000
11150       CTL2    86  DPPC   C37 11150  -0.180000  12.011000
11151       HAL2    86  DPPC   H7X 11151   0.090000   1.008000
11152       HAL2    86  DPPC   H7Y 11152   0.090000   1.008000
11153       CTL2    86  DPPC   C38 11153  -0.180000  12.011000
11154       HAL2    86  DPPC   H8X 11154   0.090000   1.008000
11155       HAL2    86  DPPC   H8Y 11155   0.090000   1.008000
11156       CTL2    86  DPPC   C39 11156  -0.180000  12.011000
11157       HAL2    86  DPPC   H9X 11157   0.090000   1.008000
11158       HAL2    86  DPPC   H9Y 11158   0.090000   1.008000
11159       CTL2    86  DPPC  C310 11159  -0.180000  12.011000
11160       HAL2    86  DPPC  H10X 11160   0.090000   1.008000
11161       HAL2    86  DPPC  H10Y 11161   0.090000   1.008000
11162       CTL2    86  DPPC  C311 11162  -0.180000  12.011000
11163       HAL2    86  DPPC  H11X 11163   0.090000   1.008000
11164       HAL2    86  DPPC  H11Y 11164   0.090000   1.008000
11165       CTL2    86  DPPC  C312 11165  -0.180000  12.011000
11166       HAL2    86  DPPC  H12X 11166   0.090000   1.008000
11167       HAL2    86  DPPC  H12Y 11167   0.090000   1.008000
11168       CTL2    86  DPPC  C313 11168  -0.180000  12.011000
11169       HAL2    86  DPPC  H13X 11169   0.090000   1.008000
11170       HAL2    86  DPPC  H13Y 11170   0.090000   1.008000
11171       CTL2    86  DPPC  C314 11171  -0.180000  12.011000
11172       HAL2    86  DPPC  H14X 11172   0.090000   1.008000
11173       HAL2    86  DPPC  H14Y 11173   0.090000   1.008000
11174       CTL2    86  DPPC  C315 11174  -0.180000  12.011000
11175       HAL2    86  DPPC  H15X 11175   0.090000   1.008000
11176       HAL2    86  DPPC  H15Y 11176   0.090000   1.008000
11177       CTL3    86  DPPC  C316 11177  -0.270000  12.011000
11178       HAL3    86  DPPC  H16X 11178   0.090000   1.008000
11179       HAL3    86  DPPC  H16Y 11179   0.090000   1.008000
11180       HAL3    86  DPPC  H16Z 11180   0.090000   1.008000
11181        NTL    87  DPPC     N 11181  -0.600000  14.007000
11182       CTL5    87  DPPC   C13 11182  -0.350000  12.011000
11183         HL    87  DPPC  H13A 11183   0.250000   1.008000
11184         HL    87  DPPC  H13B 11184   0.250000   1.008000
11185         HL    87  DPPC  H13C 11185   0.250000   1.008000
11186       CTL5    87  DPPC   C14 11186  -0.350000  12.011000
11187         HL    87  DPPC  H14A 11187   0.250000   1.008000
11188         HL    87  DPPC  H14B 11188   0.250000   1.008000
11189         HL    87  DPPC  H14C 11189   0.250000   1.008000
11190       CTL5    87  DPPC   C15 11190  -0.350000  12.011000
11191         HL    87  DPPC  H15A 11191   0.250000   1.008000
11192         HL    87  DPPC  H15B 11192   0.250000   1.008000
11193         HL    87  DPPC  H15C 11193   0.250000   1.008000
11194       CTL2    87  DPPC   C12 11194  -0.100000  12.011000
11195         HL    87  DPPC  H12A 11195   0.250000   1.008000
11196         HL    87  DPPC  H12B 11196   0.250000   1.008000
11197       CTL2    87  DPPC   C11 11197  -0.080000  12.011000
11198       HAL2    87  DPPC  H11A 11198   0.090000   1.008000
11199       HAL2    87  DPPC  H11B 11199   0.090000   1.008000
11200         PL    87  DPPC     P 11200   1.500000  30.974001
11201        O2L    87  DPPC   O13 11201  -0.780000  15.999400
11202        O2L    87  DPPC   O14 11202  -0.780000  15.999400
11203       OSLP    87  DPPC   O11 11203  -0.570000  15.999400
11204       OSLP    87  DPPC   O12 11204  -0.570000  15.999400
11205       CTL2    87  DPPC    C1 11205  -0.080000  12.011000
11206       HAL2    87  DPPC    HA 11206   0.090000   1.008000
11207       HAL2    87  DPPC    HB 11207   0.090000   1.008000
11208       CTL1    87  DPPC    C2 11208   0.170000  12.011000
11209       HAL1    87  DPPC    HS 11209   0.090000   1.008000
11210        OSL    87  DPPC   O21 11210  -0.490000  15.999400
11211         CL    87  DPPC   C21 11211   0.900000  12.011000
11212        OBL    87  DPPC   O22 11212  -0.630000  15.999400
11213       CTL2    87  DPPC   C22 11213  -0.220000  12.011000
11214       HAL2    87  DPPC   H2R 11214   0.090000   1.008000
11215       HAL2    87  DPPC   H2S 11215   0.090000   1.008000
11216       CTL2    87  DPPC    C3 11216   0.080000  12.011000
11217       HAL2    87  DPPC    HX 11217   0.090000   1.008000
11218       HAL2    87  DPPC    HY 11218   0.090000   1.008000
11219        OSL    87  DPPC   O31 11219  -0.490000  15.999400
11220         CL    87  DPPC   C31 11220   0.900000  12.011000
11221        OBL    87  DPPC   O32 11221  -0.630000  15.999400
11222       CTL2    87  DPPC   C32 11222  -0.220000  12.011000
11223       HAL2    87  DPPC   H2X 11223   0.090000   1.008000
11224       HAL2    87  DPPC   H2Y 11224   0.090000   1.008000
11225       CTL2    87  DPPC   C23 11225  -0.180000  12.011000
11226       HAL2    87  DPPC   H3R 11226   0.090000   1.008000
11227       HAL2    87  DPPC   H3S 11227   0.090000   1.008000
11228       CTL2    87  DPPC   C24 11228  -0.180000  12.011000
11229       HAL2    87  DPPC   H4R 11229   0.090000   1.008000
11230       HAL2    87  DPPC   H4S 11230   0.090000   1.008000
11231       CTL2    87  DPPC   C25 11231  -0.180000  12.011000
11232       HAL2    87  DPPC   H5R 11232   0.090000   1.008000
11233       HAL2    87  DPPC   H5S 11233   0.090000   1.008000
11234       CTL2    87  DPPC   C26 11234  -0.180000  12.011000
11235       HAL2    87  DPPC   H6R 11235   0.090000   1.008000
11236       HAL2    87  DPPC   H6S 11236   0.090000   1.008000
11237       CTL2    87  DPPC   C27 11237  -0.180000  12.011000
11238       HAL2    87  DPPC   H7R 11238   0.090000   1.008000
11239       HAL2    87  DPPC   H7S 11239   0.090000   1.008000
11240       CTL2    87  DPPC   C28 11240  -0.180000  12.011000
11241       HAL2    87  DPPC   H8R 11241   0.090000   1.008000
11242       HAL2    87  DPPC   H8S 11242   0.090000   1.008000
11243       CTL2    87  DPPC   C29 11243  -0.180000  12.011000
11244       HAL2    87  DPPC   H9R 11244   0.090000   1.008000
11245       HAL2    87  DPPC   H9S 11245   0.090000   1.008000
11246       CTL2    87  DPPC  C210 11246  -0.180000  12.011000
11247       HAL2    87  DPPC  H10R 11247   0.090000   1.008000
11248       HAL2    87  DPPC  H10S 11248   0.090000   1.008000
11249       CTL2    87  DPPC  C211 11249  -0.180000  12.011000
11250       HAL2    87  DPPC  H11R 11250   0.090000   1.008000
11251       HAL2    87  DPPC  H11S 11251   0.090000   1.008000
11252       CTL2    87  DPPC  C212 11252  -0.180000  12.011000
11253       HAL2    87  DPPC  H12R 11253   0.090000   1.008000
11254       HAL2    87  DPPC  H12S 11254   0.090000   1.008000
11255       CTL2    87  DPPC  C213 11255  -0.180000  12.011000
11256       HAL2    87  DPPC  H13R 11256   0.090000   1.008000
11257       HAL2    87  DPPC  H13S 11257   0.090000   1.008000
11258       CTL2    87  DPPC  C214 11258  -0.180000  12.011000
11259       HAL2    87  DPPC  H14R 11259   0.090000   1.008000
11260       HAL2    87  DPPC  H14S 11260   0.090000   1.008000
11261       CTL2    87  DPPC  C215 11261  -0.180000  12.011000
11262       HAL2    87  DPPC  H15R 11262   0.090000   1.008000
11263       HAL2    87  DPPC  H15S 11263   0.090000   1.008000
11264       CTL3    87  DPPC  C216 11264  -0.270000  12.011000
11265       HAL3    87  DPPC  H16R 11265   0.090000   1.008000
11266       HAL3    87  DPPC  H16S 11266   0.090000   1.008000
11267       HAL3    87  DPPC  H16T 11267   0.090000   1.008000
11268       CTL2    87  DPPC   C33 11268  -0.180000  12.011000
11269       HAL2    87  DPPC   H3X 11269   0.090000   1.008000
11270       HAL2    87  DPPC   H3Y 11270   0.090000   1.008000
11271       CTL2    87  DPPC   C34 11271  -0.180000  12.011000
11272       HAL2    87  DPPC   H4X 11272   0.090000   1.008000
11273       HAL2    87  DPPC   H4Y 11273   0.090000   1.008000
11274       CTL2    87  DPPC   C35 11274  -0.180000  12.011000
11275       HAL2    87  DPPC   H5X 11275   0.090000   1.008000
11276       HAL2    87  DPPC   H5Y 11276   0.090000   1.008000
11277       CTL2    87  DPPC   C36 11277  -0.180000  12.011000
11278       HAL2    87  DPPC   H6X 11278   0.090000   1.008000
11279       HAL2    87  DPPC   H6Y 11279   0.090000   1.008000
11280       CTL2    87  DPPC   C37 11280  -0.180000  12.011000
11281       HAL2    87  DPPC   H7X 11281   0.090000   1.008000
11282       HAL2    87  DPPC   H7Y 11282   0.090000   1.008000
11283       CTL2    87  DPPC   C38 11283  -0.180000  12.011000
11284       HAL2    87  DPPC   H8X 11284   0.090000   1.008000
11285       HAL2    87  DPPC   H8Y 11285   0.090000   1.008000
11286       CTL2    87  DPPC   C39 11286  -0.180000  12.011000
11287       HAL2    87  DPPC   H9X 11287   0.090000   1.008000
11288       HAL2    87  DPPC   H9Y 11288   0.090000   1.008000
11289       CTL2    87  DPPC  C310 11289  -0.180000  12.011000
11290       HAL2    87  DPPC  H10X 11290   0.090000   1.008000
11291       HAL2    87  DPPC  H10Y 11291   0.090000   1.008000
11292       CTL2    87  DPPC  C311 11292  -0.180000  12.011000
11293       HAL2    87  DPPC  H11X 11293   0.090000   1.008000
11294       HAL2    87  DPPC  H11Y 11294   0.090000   1.008000
11295       CTL2    87  DPPC  C312 11295  -0.180000  12.011000
11296       HAL2    87  DPPC  H12X 11296   0.090000   1.008000
11297       HAL2    87  DPPC  H12Y 11297   0.090000   1.008000
11298       CTL2    87  DPPC  C313 11298  -0.180000  12.011000
11299       HAL2    87  DPPC  H13X 11299   0.090000   1.008000
11300       HAL2    87  DPPC  H13Y 11300   0.090000   1.008000
11301       CTL2    87  DPPC  C314 11301  -0.180000  12.011000
11302       HAL2    87  DPPC  H14X 11302   0.090000   1.008000
11303       HAL2    87  DPPC  H14Y 11303   0.090000   1.008000
11304       CTL2    87  DPPC  C315 11304  -0.180000  12.011000
11305       HAL2    87  DPPC  H15X 11305   0.090000   1.008000
11306       HAL2    87  DPPC  H15Y 11306   0.090000   1.008000
11307       CTL3    87  DPPC  C316 11307  -0.270000  12.011000
11308       HAL3    87  DPPC  H16X 11308   0.090000   1.008000
11309       HAL3    87  DPPC  H16Y 11309   0.090000   1.008000
11310       HAL3    87  DPPC  H16Z 11310   0.090000   1.008000
11311        NTL    88  DPPC     N 11311  -0.600000  14.007000
11312       CTL5    88  DPPC   C13 11312  -0.350000  12.011000
11313         HL    88  DPPC  H13A 11313   0.250000   1.008000
11314         HL    88  DPPC  H13B 11314   0.250000   1.008000
11315         HL    88  DPPC  H13C 11315   0.250000   1.008000
11316       CTL5    88  DPPC   C14 11316  -0.350000  12.011000
11317         HL    88  DPPC  H14A 11317   0.250000   1.008000
11318         HL    88  DPPC  H14B 11318   0.250000   1.008000
11319         HL    88  DPPC  H14C 11319   0.250000   1.008000
11320       CTL5    88  DPPC   C15 11320  -0.350000  12.011000
11321         HL    88  DPPC  H15A 11321   0.250000   1.008000
11322         HL    88  DPPC  H15B 11322   0.250000   1.008000
11323         HL    88  DPPC  H15C 11323   0.250000   1.008000
11324       CTL2    88  DPPC   C12 11324  -0.100000  12.011000
11325         HL    88  DPPC  H12A 11325   0.250000   1.008000
11326         HL    88  DPPC  H12B 11326   0.250000   1.008000
11327       CTL2    88  DPPC   C11 11327  -0.080000  12.011000
11328       HAL2    88  DPPC  H11A 11328   0.090000   1.008000
11329       HAL2    88  DPPC  H11B 11329   0.090000   1.008000
11330         PL    88  DPPC     P 11330   1.500000  30.974001
11331        O2L    88  DPPC   O13 11331  -0.780000  15.999400
11332        O2L    88  DPPC   O14 11332  -0.780000  15.999400
11333       OSLP    88  DPPC   O11 11333  -0.570000  15.999400
11334       OSLP    88  DPPC   O12 11334  -0.570000  15.999400
11335       CTL2    88  DPPC    C1 11335  -0.080000  12.011000
11336       HAL2    88  DPPC    HA 11336   0.090000   1.008000
11337       HAL2    88  DPPC    HB 11337   0.090000   1.008000
11338       CTL1    88  DPPC    C2 11338   0.170000  12.011000
11339       HAL1    88  DPPC    HS 11339   0.090000   1.008000
11340        OSL    88  DPPC   O21 11340  -0.490000  15.999400
11341         CL    88  DPPC   C21 11341   0.900000  12.011000
11342        OBL    88  DPPC   O22 11342  -0.630000  15.999400
11343       CTL2    88  DPPC   C22 11343  -0.220000  12.011000
11344       HAL2    88  DPPC   H2R 11344   0.090000   1.008000
11345       HAL2    88  DPPC   H2S 11345   0.090000   1.008000
11346       CTL2    88  DPPC    C3 11346   0.080000  12.011000
11347       HAL2    88  DPPC    HX 11347   0.090000   1.008000
11348       HAL2    88  DPPC    HY 11348   0.090000   1.008000
11349        OSL    88  DPPC   O31 11349  -0.490000  15.999400
11350         CL    88  DPPC   C31 11350   0.900000  12.011000
11351        OBL    88  DPPC   O32 11351  -0.630000  15.999400
11352       CTL2    88  DPPC   C32 11352  -0.220000  12.011000
11353       HAL2    88  DPPC   H2X 11353   0.090000   1.008000
11354       HAL2    88  DPPC   H2Y 11354   0.090000   1.008000
11355       CTL2    88  DPPC   C23 11355  -0.180000  12.011000
11356       HAL2    88  DPPC   H3R 11356   0.090000   1.008000
11357       HAL2    88  DPPC   H3S 11357   0.090000   1.008000
11358       CTL2    88  DPPC   C24 11358  -0.180000  12.011000
11359       HAL2    88  DPPC   H4R 11359   0.090000   1.008000
11360       HAL2    88  DPPC   H4S 11360   0.090000   1.008000
11361       CTL2    88  DPPC   C25 11361  -0.180000  12.011000
11362       HAL2    88  DPPC   H5R 11362   0.090000   1.008000
11363       HAL2    88  DPPC   H5S 11363   0.090000   1.008000
11364       CTL2    88  DPPC   C26 11364  -0.180000  12.011000
11365       HAL2    88  DPPC   H6R 11365   0.090000   1.008000
11366       HAL2    88  DPPC   H6S 11366   0.090000   1.008000
11367       CTL2    88  DPPC   C27 11367  -0.180000  12.011000
11368       HAL2    88  DPPC   H7R 11368   0.090000   1.008000
11369       HAL2    88  DPPC   H7S 11369   0.090000   1.008000
11370       CTL2    88  DPPC   C28 11370  -0.180000  12.011000
11371       HAL2    88  DPPC   H8R 11371   0.090000   1.008000
11372       HAL2    88  DPPC   H8S 11372   0.090000   1.008000
11373       CTL2    88  DPPC   C29 11373  -0.180000  12.011000
11374       HAL2    88  DPPC   H9R 11374   0.090000   1.008000
11375       HAL2    88  DPPC   H9S 11375   0.090000   1.008000
11376       CTL2    88  DPPC  C210 11376  -0.180000  12.011000
11377       HAL2    88  DPPC  H10R 11377   0.090000   1.008000
11378       HAL2    88  DPPC  H10S 11378   0.090000   1.008000
11379       CTL2    88  DPPC  C211 11379  -0.180000  12.011000
11380       HAL2    88  DPPC  H11R 11380   0.090000   1.008000
11381       HAL2    88  DPPC  H11S 11381   0.090000   1.008000
11382       CTL2    88  DPPC  C212 11382  -0.180000  12.011000
11383       HAL2    88  DPPC  H12R 11383   0.090000   1.008000
11384       HAL2    88  DPPC  H12S 11384   0.090000   1.008000
11385       CTL2    88  DPPC  C213 11385  -0.180000  12.011000
11386       HAL2    88  DPPC  H13R 11386   0.090000   1.008000
11387       HAL2    88  DPPC  H13S 11387   0.090000   1.008000
11388       CTL2    88  DPPC  C214 11388  -0.180000  12.011000
11389       HAL2    88  DPPC  H14R 11389   0.090000   1.008000
11390       HAL2    88  DPPC  H14S 11390   0.090000   1.008000
11391       CTL2    88  DPPC  C215 11391  -0.180000  12.011000
11392       HAL2    88  DPPC  H15R 11392   0.090000   1.008000
11393       HAL2    88  DPPC  H15S 11393   0.090000   1.008000
11394       CTL3    88  DPPC  C216 11394  -0.270000  12.011000
11395       HAL3    88  DPPC  H16R 11395   0.090000   1.008000
11396       HAL3    88  DPPC  H16S 11396   0.090000   1.008000
11397       HAL3    88  DPPC  H16T 11397   0.090000   1.008000
11398       CTL2    88  DPPC   C33 11398  -0.180000  12.011000
11399       HAL2    88  DPPC   H3X 11399   0.090000   1.008000
11400       HAL2    88  DPPC   H3Y 11400   0.090000   1.008000
11401       CTL2    88  DPPC   C34 11401  -0.180000  12.011000
11402       HAL2    88  DPPC   H4X 11402   0.090000   1.008000
11403       HAL2    88  DPPC   H4Y 11403   0.090000   1.008000
11404       CTL2    88  DPPC   C35 11404  -0.180000  12.011000
11405       HAL2    88  DPPC   H5X 11405   0.090000   1.008000
11406       HAL2    88  DPPC   H5Y 11406   0.090000   1.008000
11407       CTL2    88  DPPC   C36 11407  -0.180000  12.011000
11408       HAL2    88  DPPC   H6X 11408   0.090000   1.008000
11409       HAL2    88  DPPC   H6Y 11409   0.090000   1.008000
11410       CTL2    88  DPPC   C37 11410  -0.180000  12.011000
11411       HAL2    88  DPPC   H7X 11411   0.090000   1.008000
11412       HAL2    88  DPPC   H7Y 11412   0.090000   1.008000
11413       CTL2    88  DPPC   C38 11413  -0.180000  12.011000
11414       HAL2    88  DPPC   H8X 11414   0.090000   1.008000
11415       HAL2    88  DPPC   H8Y 11415   0.090000   1.008000
11416       CTL2    88  DPPC   C39 11416  -0.180000  12.011000
11417       HAL2    88  DPPC   H9X 11417   0.090000   1.008000
11418       HAL2    88  DPPC   H9Y 11418   0.090000   1.008000
11419       CTL2    88  DPPC  C310 11419  -0.180000  12.011000
11420       HAL2    88  DPPC  H10X 11420   0.090000   1.008000
11421       HAL2    88  DPPC  H10Y 11421   0.090000   1.008000
11422       CTL2    88  DPPC  C311 11422  -0.180000  12.011000
11423       HAL2    88  DPPC  H11X 11423   0.090000   1.008000
11424       HAL2    88  DPPC  H11Y 11424   0.090000   1.008000
11425       CTL2    88  DPPC  C312 11425  -0.180000  12.011000
11426       HAL2    88  DPPC  H12X 11426   0.090000   1.008000
11427       HAL2    88  DPPC  H12Y 11427   0.090000   1.008000
11428       CTL2    88  DPPC  C313 11428  -0.180000  12.011000
11429       HAL2    88  DPPC  H13X 11429   0.090000   1.008000
11430       HAL2    88  DPPC  H13Y 11430   0.090000   1.008000
11431       CTL2    88  DPPC  C314 11431  -0.180000  12.011000
11432       HAL2    88  DPPC  H14X 11432   0.090000   1.008000
11433       HAL2    88  DPPC  H14Y 11433   0.090000   1.008000
11434       CTL2    88  DPPC  C315 11434  -0.180000  12.011000
11435       HAL2    88  DPPC  H15X 11435   0.090000   1.008000
11436       HAL2    88  DPPC  H15Y 11436   0.090000   1.008000
11437       CTL3    88  DPPC  C316 11437  -0.270000  12.011000
11438       HAL3    88  DPPC  H16X 11438   0.090000   1.008000
11439       HAL3    88  DPPC  H16Y 11439   0.090000   1.008000
11440       HAL3    88  DPPC  H16Z 11440   0.090000   1.008000
11441        NTL    89  DPPC     N 11441  -0.600000  14.007000
11442       CTL5    89  DPPC   C13 11442  -0.350000  12.011000
11443         HL    89  DPPC  H13A 11443   0.250000   1.008000
11444         HL    89  DPPC  H13B 11444   0.250000   1.008000
11445         HL    89  DPPC  H13C 11445   0.250000   1.008000
11446       CTL5    89  DPPC   C14 11446  -0.350000  12.011000
11447         HL    89  DPPC  H14A 11447   0.250000   1.008000
11448         HL    89  DPPC  H14B 11448   0.250000   1.008000
11449         HL    89  DPPC  H14C 11449   0.250000   1.008000
11450       CTL5    89  DPPC   C15 11450  -0.350000  12.011000
11451         HL    89  DPPC  H15A 11451   0.250000   1.008000
11452         HL    89  DPPC  H15B 11452   0.250000   1.008000
11453         HL    89  DPPC  H15C 11453   0.250000   1.008000
11454       CTL2    89  DPPC   C12 11454  -0.100000  12.011000
11455         HL    89  DPPC  H12A 11455   0.250000   1.008000
11456         HL    89  DPPC  H12B 11456   0.250000   1.008000
11457       CTL2    89  DPPC   C11 11457  -0.080000  12.011000
11458       HAL2    89  DPPC  H11A 11458   0.090000   1.008000
11459       HAL2    89  DPPC  H11B 11459   0.090000   1.008000
11460         PL    89  DPPC     P 11460   1.500000  30.974001
11461        O2L    89  DPPC   O13 11461  -0.780000  15.999400
11462        O2L    89  DPPC   O14 11462  -0.780000  15.999400
11463       OSLP    89  DPPC   O11 11463  -0.570000  15.999400
11464       OSLP    89  DPPC   O12 11464  -0.570000  15.999400
11465       CTL2    89  DPPC    C1 11465  -0.080000  12.011000
11466       HAL2    89  DPPC    HA 11466   0.090000   1.008000
11467       HAL2    89  DPPC    HB 11467   0.090000   1.008000
11468       CTL1    89  DPPC    C2 11468   0.170000  12.011000
11469       HAL1    89  DPPC    HS 11469   0.090000   1.008000
11470        OSL    89  DPPC   O21 11470  -0.490000  15.999400
11471         CL    89  DPPC   C21 11471   0.900000  12.011000
11472        OBL    89  DPPC   O22 11472  -0.630000  15.999400
11473       CTL2    89  DPPC   C22 11473  -0.220000  12.011000
11474       HAL2    89  DPPC   H2R 11474   0.090000   1.008000
11475       HAL2    89  DPPC   H2S 11475   0.090000   1.008000
11476       CTL2    89  DPPC    C3 11476   0.080000  12.011000
11477       HAL2    89  DPPC    HX 11477   0.090000   1.008000
11478       HAL2    89  DPPC    HY 11478   0.090000   1.008000
11479        OSL    89  DPPC   O31 11479  -0.490000  15.999400
11480         CL    89  DPPC   C31 11480   0.900000  12.011000
11481        OBL    89  DPPC   O32 11481  -0.630000  15.999400
11482       CTL2    89  DPPC   C32 11482  -0.220000  12.011000
11483       HAL2    89  DPPC   H2X 11483   0.090000   1.008000
11484       HAL2    89  DPPC   H2Y 11484   0.090000   1.008000
11485       CTL2    89  DPPC   C23 11485  -0.180000  12.011000
11486       HAL2    89  DPPC   H3R 11486   0.090000   1.008000
11487       HAL2    89  DPPC   H3S 11487   0.090000   1.008000
11488       CTL2    89  DPPC   C24 11488  -0.180000  12.011000
11489       HAL2    89  DPPC   H4R 11489   0.090000   1.008000
11490       HAL2    89  DPPC   H4S 11490   0.090000   1.008000
11491       CTL2    89  DPPC   C25 11491  -0.180000  12.011000
11492       HAL2    89  DPPC   H5R 11492   0.090000   1.008000
11493       HAL2    89  DPPC   H5S 11493   0.090000   1.008000
11494       CTL2    89  DPPC   C26 11494  -0.180000  12.011000
11495       HAL2    89  DPPC   H6R 11495   0.090000   1.008000
11496       HAL2    89  DPPC   H6S 11496   0.090000   1.008000
11497       CTL2    89  DPPC   C27 11497  -0.180000  12.011000
11498       HAL2    89  DPPC   H7R 11498   0.090000   1.008000
11499       HAL2    89  DPPC   H7S 11499   0.090000   1.008000
11500       CTL2    89  DPPC   C28 11500  -0.180000  12.011000
11501       HAL2    89  DPPC   H8R 11501   0.090000   1.008000
11502       HAL2    89  DPPC   H8S 11502   0.090000   1.008000
11503       CTL2    89  DPPC   C29 11503  -0.180000  12.011000
11504       HAL2    89  DPPC   H9R 11504   0.090000   1.008000
11505       HAL2    89  DPPC   H9S 11505   0.090000   1.008000
11506       CTL2    89  DPPC  C210 11506  -0.180000  12.011000
11507       HAL2    89  DPPC  H10R 11507   0.090000   1.008000
11508       HAL2    89  DPPC  H10S 11508   0.090000   1.008000
11509       CTL2    89  DPPC  C211 11509  -0.180000  12.011000
11510       HAL2    89  DPPC  H11R 11510   0.090000   1.008000
11511       HAL2    89  DPPC  H11S 11511   0.090000   1.008000
11512       CTL2    89  DPPC  C212 11512  -0.180000  12.011000
11513       HAL2    89  DPPC  H12R 11513   0.090000   1.008000
11514       HAL2    89  DPPC  H12S 11514   0.090000   1.008000
11515       CTL2    89  DPPC  C213 11515  -0.180000  12.011000
11516       HAL2    89  DPPC  H13R 11516   0.090000   1.008000
11517       HAL2    89  DPPC  H13S 11517   0.090000   1.008000
11518       CTL2    89  DPPC  C214 11518  -0.180000  12.011000
11519       HAL2    89  DPPC  H14R 11519   0.090000   1.008000
11520       HAL2    89  DPPC  H14S 11520   0.090000   1.008000
11521       CTL2    89  DPPC  C215 11521  -0.180000  12.011000
11522       HAL2    89  DPPC  H15R 11522   0.090000   1.008000
11523       HAL2    89  DPPC  H15S 11523   0.090000   1.008000
11524       CTL3    89  DPPC  C216 11524  -0.270000  12.011000
11525       HAL3    89  DPPC  H16R 11525   0.090000   1.008000
11526       HAL3    89  DPPC  H16S 11526   0.090000   1.008000
11527       HAL3    89  DPPC  H16T 11527   0.090000   1.008000
11528       CTL2    89  DPPC   C33 11528  -0.180000  12.011000
11529       HAL2    89  DPPC   H3X 11529   0.090000   1.008000
11530       HAL2    89  DPPC   H3Y 11530   0.090000   1.008000
11531       CTL2    89  DPPC   C34 11531  -0.180000  12.011000
11532       HAL2    89  DPPC   H4X 11532   0.090000   1.008000
11533       HAL2    89  DPPC   H4Y 11533   0.090000   1.008000
11534       CTL2    89  DPPC   C35 11534  -0.180000  12.011000
11535       HAL2    89  DPPC   H5X 11535   0.090000   1.008000
11536       HAL2    89  DPPC   H5Y 11536   0.090000   1.008000
11537       CTL2    89  DPPC   C36 11537  -0.180000  12.011000
11538       HAL2    89  DPPC   H6X 11538   0.090000   1.008000
11539       HAL2    89  DPPC   H6Y 11539   0.090000   1.008000
11540       CTL2    89  DPPC   C37 11540  -0.180000  12.011000
11541       HAL2    89  DPPC   H7X 11541   0.090000   1.008000
11542       HAL2    89  DPPC   H7Y 11542   0.090000   1.008000
11543       CTL2    89  DPPC   C38 11543  -0.180000  12.011000
11544       HAL2    89  DPPC   H8X 11544   0.090000   1.008000
11545       HAL2    89  DPPC   H8Y 11545   0.090000   1.008000
11546       CTL2    89  DPPC   C39 11546  -0.180000  12.011000
11547       HAL2    89  DPPC   H9X 11547   0.090000   1.008000
11548       HAL2    89  DPPC   H9Y 11548   0.090000   1.008000
11549       CTL2    89  DPPC  C310 11549  -0.180000  12.011000
11550       HAL2    89  DPPC  H10X 11550   0.090000   1.008000
11551       HAL2    89  DPPC  H10Y 11551   0.090000   1.008000
11552       CTL2    89  DPPC  C311 11552  -0.180000  12.011000
11553       HAL2    89  DPPC  H11X 11553   0.090000   1.008000
11554       HAL2    89  DPPC  H11Y 11554   0.090000   1.008000
11555       CTL2    89  DPPC  C312 11555  -0.180000  12.011000
11556       HAL2    89  DPPC  H12X 11556   0.090000   1.008000
11557       HAL2    89  DPPC  H12Y 11557   0.090000   1.008000
11558       CTL2    89  DPPC  C313 11558  -0.180000  12.011000
11559       HAL2    89  DPPC  H13X 11559   0.090000   1.008000
11560       HAL2    89  DPPC  H13Y 11560   0.090000   1.008000
11561       CTL2    89  DPPC  C314 11561  -0.180000  12.011000
11562       HAL2    89  DPPC  H14X 11562   0.090000   1.008000
11563       HAL2    89  DPPC  H14Y 11563   0.090000   1.008000
11564       CTL2    89  DPPC  C315 11564  -0.180000  12.011000
11565       HAL2    89  DPPC  H15X 11565   0.090000   1.008000
11566       HAL2    89  DPPC  H15Y 11566   0.090000   1.008000
11567       CTL3    89  DPPC  C316 11567  -0.270000  12.011000
11568       HAL3    89  DPPC  H16X 11568   0.090000   1.008000
11569       HAL3    89  DPPC  H16Y 11569   0.090000   1.008000
11570       HAL3    89  DPPC  H16Z 11570   0.090000   1.008000
11571        NTL    90  DPPC     N 11571  -0.600000  14.007000
11572       CTL5    90  DPPC   C13 11572  -0.350000  12.011000
11573         HL    90  DPPC  H13A 11573   0.250000   1.008000
11574         HL    90  DPPC  H13B 11574   0.250000   1.008000
11575         HL    90  DPPC  H13C 11575   0.250000   1.008000
11576       CTL5    90  DPPC   C14 11576  -0.350000  12.011000
11577         HL    90  DPPC  H14A 11577   0.250000   1.008000
11578         HL    90  DPPC  H14B 11578   0.250000   1.008000
11579         HL    90  DPPC  H14C 11579   0.250000   1.008000
11580       CTL5    90  DPPC   C15 11580  -0.350000  12.011000
11581         HL    90  DPPC  H15A 11581   0.250000   1.008000
11582         HL    90  DPPC  H15B 11582   0.250000   1.008000
11583         HL    90  DPPC  H15C 11583   0.250000   1.008000
11584       CTL2    90  DPPC   C12 11584  -0.100000  12.011000
11585         HL    90  DPPC  H12A 11585   0.250000   1.008000
11586         HL    90  DPPC  H12B 11586   0.250000   1.008000
11587       CTL2    90  DPPC   C11 11587  -0.080000  12.011000
11588       HAL2    90  DPPC  H11A 11588   0.090000   1.008000
11589       HAL2    90  DPPC  H11B 11589   0.090000   1.008000
11590         PL    90  DPPC     P 11590   1.500000  30.974001
11591        O2L    90  DPPC   O13 11591  -0.780000  15.999400
11592        O2L    90  DPPC   O14 11592  -0.780000  15.999400
11593       OSLP    90  DPPC   O11 11593  -0.570000  15.999400
11594       OSLP    90  DPPC   O12 11594  -0.570000  15.999400
11595       CTL2    90  DPPC    C1 11595  -0.080000  12.011000
11596       HAL2    90  DPPC    HA 11596   0.090000   1.008000
11597       HAL2    90  DPPC    HB 11597   0.090000   1.008000
11598       CTL1    90  DPPC    C2 11598   0.170000  12.011000
11599       HAL1    90  DPPC    HS 11599   0.090000   1.008000
11600        OSL    90  DPPC   O21 11600  -0.490000  15.999400
11601         CL    90  DPPC   C21 11601   0.900000  12.011000
11602        OBL    90  DPPC   O22 11602  -0.630000  15.999400
11603       CTL2    90  DPPC   C22 11603  -0.220000  12.011000
11604       HAL2    90  DPPC   H2R 11604   0.090000   1.008000
11605       HAL2    90  DPPC   H2S 11605   0.090000   1.008000
11606       CTL2    90  DPPC    C3 11606   0.080000  12.011000
11607       HAL2    90  DPPC    HX 11607   0.090000   1.008000
11608       HAL2    90  DPPC    HY 11608   0.090000   1.008000
11609        OSL    90  DPPC   O31 11609  -0.490000  15.999400
11610         CL    90  DPPC   C31 11610   0.900000  12.011000
11611        OBL    90  DPPC   O32 11611  -0.630000  15.999400
11612       CTL2    90  DPPC   C32 11612  -0.220000  12.011000
11613       HAL2    90  DPPC   H2X 11613   0.090000   1.008000
11614       HAL2    90  DPPC   H2Y 11614   0.090000   1.008000
11615       CTL2    90  DPPC   C23 11615  -0.180000  12.011000
11616       HAL2    90  DPPC   H3R 11616   0.090000   1.008000
11617       HAL2    90  DPPC   H3S 11617   0.090000   1.008000
11618       CTL2    90  DPPC   C24 11618  -0.180000  12.011000
11619       HAL2    90  DPPC   H4R 11619   0.090000   1.008000
11620       HAL2    90  DPPC   H4S 11620   0.090000   1.008000
11621       CTL2    90  DPPC   C25 11621  -0.180000  12.011000
11622       HAL2    90  DPPC   H5R 11622   0.090000   1.008000
11623       HAL2    90  DPPC   H5S 11623   0.090000   1.008000
11624       CTL2    90  DPPC   C26 11624  -0.180000  12.011000
11625       HAL2    90  DPPC   H6R 11625   0.090000   1.008000
11626       HAL2    90  DPPC   H6S 11626   0.090000   1.008000
11627       CTL2    90  DPPC   C27 11627  -0.180000  12.011000
11628       HAL2    90  DPPC   H7R 11628   0.090000   1.008000
11629       HAL2    90  DPPC   H7S 11629   0.090000   1.008000
11630       CTL2    90  DPPC   C28 11630  -0.180000  12.011000
11631       HAL2    90  DPPC   H8R 11631   0.090000   1.008000
11632       HAL2    90  DPPC   H8S 11632   0.090000   1.008000
11633       CTL2    90  DPPC   C29 11633  -0.180000  12.011000
11634       HAL2    90  DPPC   H9R 11634   0.090000   1.008000
11635       HAL2    90  DPPC   H9S 11635   0.090000   1.008000
11636       CTL2    90  DPPC  C210 11636  -0.180000  12.011000
11637       HAL2    90  DPPC  H10R 11637   0.090000   1.008000
11638       HAL2    90  DPPC  H10S 11638   0.090000   1.008000
11639       CTL2    90  DPPC  C211 11639  -0.180000  12.011000
11640       HAL2    90  DPPC  H11R 11640   0.090000   1.008000
11641       HAL2    90  DPPC  H11S 11641   0.090000   1.008000
11642       CTL2    90  DPPC  C212 11642  -0.180000  12.011000
11643       HAL2    90  DPPC  H12R 11643   0.090000   1.008000
11644       HAL2    90  DPPC  H12S 11644   0.090000   1.008000
11645       CTL2    90  DPPC  C213 11645  -0.180000  12.011000
11646       HAL2    90  DPPC  H13R 11646   0.090000   1.008000
11647       HAL2    90  DPPC  H13S 11647   0.090000   1.008000
11648       CTL2    90  DPPC  C214 11648  -0.180000  12.011000
11649       HAL2    90  DPPC  H14R 11649   0.090000   1.008000
11650       HAL2    90  DPPC  H14S 11650   0.090000   1.008000
11651       CTL2    90  DPPC  C215 11651  -0.180000  12.011000
11652       HAL2    90  DPPC  H15R 11652   0.090000   1.008000
11653       HAL2    90  DPPC  H15S 11653   0.090000   1.008000
11654       CTL3    90  DPPC  C216 11654  -0.270000  12.011000
11655       HAL3    90  DPPC  H16R 11655   0.090000   1.008000
11656       HAL3    90  DPPC  H16S 11656   0.090000   1.008000
11657       HAL3    90  DPPC  H16T 11657   0.090000   1.008000
11658       CTL2    90  DPPC   C33 11658  -0.180000  12.011000
11659       HAL2    90  DPPC   H3X 11659   0.090000   1.008000
11660       HAL2    90  DPPC   H3Y 11660   0.090000   1.008000
11661       CTL2    90  DPPC   C34 11661  -0.180000  12.011000
11662       HAL2    90  DPPC   H4X 11662   0.090000   1.008000
11663       HAL2    90  DPPC   H4Y 11663   0.090000   1.008000
11664       CTL2    90  DPPC   C35 11664  -0.180000  12.011000
11665       HAL2    90  DPPC   H5X 11665   0.090000   1.008000
11666       HAL2    90  DPPC   H5Y 11666   0.090000   1.008000
11667       CTL2    90  DPPC   C36 11667  -0.180000  12.011000
11668       HAL2    90  DPPC   H6X 11668   0.090000   1.008000
11669       HAL2    90  DPPC   H6Y 11669   0.090000   1.008000
11670       CTL2    90  DPPC   C37 11670  -0.180000  12.011000
11671       HAL2    90  DPPC   H7X 11671   0.090000   1.008000
11672       HAL2    90  DPPC   H7Y 11672   0.090000   1.008000
11673       CTL2    90  DPPC   C38 11673  -0.180000  12.011000
11674       HAL2    90  DPPC   H8X 11674   0.090000   1.008000
11675       HAL2    90  DPPC   H8Y 11675   0.090000   1.008000
11676       CTL2    90  DPPC   C39 11676  -0.180000  12.011000
11677       HAL2    90  DPPC   H9X 11677   0.090000   1.008000
11678       HAL2    90  DPPC   H9Y 11678   0.090000   1.008000
11679       CTL2    90  DPPC  C310 11679  -0.180000  12.011000
11680       HAL2    90  DPPC  H10X 11680   0.090000   1.008000
11681       HAL2    90  DPPC  H10Y 11681   0.090000   1.008000
11682       CTL2    90  DPPC  C311 11682  -0.180000  12.011000
11683       HAL2    90  DPPC  H11X 11683   0.090000   1.008000
11684       HAL2    90  DPPC  H11Y 11684   0.090000   1.008000
11685       CTL2    90  DPPC  C312 11685  -0.180000  12.011000
11686       HAL2    90  DPPC  H12X 11686   0.090000   1.008000
11687       HAL2    90  DPPC  H12Y 11687   0.090000   1.008000
11688       CTL2    90  DPPC  C313 11688  -0.180000  12.011000
11689       HAL2    90  DPPC  H13X 11689   0.090000   1.008000
11690       HAL2    90  DPPC  H13Y 11690   0.090000   1.008000
11691       CTL2    90  DPPC  C314 11691  -0.180000  12.011000
11692       HAL2    90  DPPC  H14X 11692   0.090000   1.008000
11693       HAL2    90  DPPC  H14Y 11693   0.090000   1.008000
11694       CTL2    90  DPPC  C315 11694  -0.180000  12.011000
11695       HAL2    90  DPPC  H15X 11695   0.090000   1.008000
11696       HAL2    90  DPPC  H15Y 11696   0.090000   1.008000
11697       CTL3    90  DPPC  C316 11697  -0.270000  12.011000
11698       HAL3    90  DPPC  H16X 11698   0.090000   1.008000
11699       HAL3    90  DPPC  H16Y 11699   0.090000   1.008000
11700       HAL3    90  DPPC  H16Z 11700   0.090000   1.008000
11701        NTL    91  DPPC     N 11701  -0.600000  14.007000
11702       CTL5    91  DPPC   C13 11702  -0.350000  12.011000
11703         HL    91  DPPC  H13A 11703   0.250000   1.008000
11704         HL    91  DPPC  H13B 11704   0.250000   1.008000
11705         HL    91  DPPC  H13C 11705   0.250000   1.008000
11706       CTL5    91  DPPC   C14 11706  -0.350000  12.011000
11707         HL    91  DPPC  H14A 11707   0.250000   1.008000
11708         HL    91  DPPC  H14B 11708   0.250000   1.008000
11709         HL    91  DPPC  H14C 11709   0.250000   1.008000
11710       CTL5    91  DPPC   C15 11710  -0.350000  12.011000
11711         HL    91  DPPC  H15A 11711   0.250000   1.008000
11712         HL    91  DPPC  H15B 11712   0.250000   1.008000
11713         HL    91  DPPC  H15C 11713   0.250000   1.008000
11714       CTL2    91  DPPC   C12 11714  -0.100000  12.011000
11715         HL    91  DPPC  H12A 11715   0.250000   1.008000
11716         HL    91  DPPC  H12B 11716   0.250000   1.008000
11717       CTL2    91  DPPC   C11 11717  -0.080000  12.011000
11718       HAL2    91  DPPC  H11A 11718   0.090000   1.008000
11719       HAL2    91  DPPC  H11B 11719   0.090000   1.008000
11720         PL    91  DPPC     P 11720   1.500000  30.974001
11721        O2L    91  DPPC   O13 11721  -0.780000  15.999400
11722        O2L    91  DPPC   O14 11722  -0.780000  15.999400
11723       OSLP    91  DPPC   O11 11723  -0.570000  15.999400
11724       OSLP    91  DPPC   O12 11724  -0.570000  15.999400
11725       CTL2    91  DPPC    C1 11725  -0.080000  12.011000
11726       HAL2    91  DPPC    HA 11726   0.090000   1.008000
11727       HAL2    91  DPPC    HB 11727   0.090000   1.008000
11728       CTL1    91  DPPC    C2 11728   0.170000  12.011000
11729       HAL1    91  DPPC    HS 11729   0.090000   1.008000
11730        OSL    91  DPPC   O21 11730  -0.490000  15.999400
11731         CL    91  DPPC   C21 11731   0.900000  12.011000
11732        OBL    91  DPPC   O22 11732  -0.630000  15.999400
11733       CTL2    91  DPPC   C22 11733  -0.220000  12.011000
11734       HAL2    91  DPPC   H2R 11734   0.090000   1.008000
11735       HAL2    91  DPPC   H2S 11735   0.090000   1.008000
11736       CTL2    91  DPPC    C3 11736   0.080000  12.011000
11737       HAL2    91  DPPC    HX 11737   0.090000   1.008000
11738       HAL2    91  DPPC    HY 11738   0.090000   1.008000
11739        OSL    91  DPPC   O31 11739  -0.490000  15.999400
11740         CL    91  DPPC   C31 11740   0.900000  12.011000
11741        OBL    91  DPPC   O32 11741  -0.630000  15.999400
11742       CTL2    91  DPPC   C32 11742  -0.220000  12.011000
11743       HAL2    91  DPPC   H2X 11743   0.090000   1.008000
11744       HAL2    91  DPPC   H2Y 11744   0.090000   1.008000
11745       CTL2    91  DPPC   C23 11745  -0.180000  12.011000
11746       HAL2    91  DPPC   H3R 11746   0.090000   1.008000
11747       HAL2    91  DPPC   H3S 11747   0.090000   1.008000
11748       CTL2    91  DPPC   C24 11748  -0.180000  12.011000
11749       HAL2    91  DPPC   H4R 11749   0.090000   1.008000
11750       HAL2    91  DPPC   H4S 11750   0.090000   1.008000
11751       CTL2    91  DPPC   C25 11751  -0.180000  12.011000
11752       HAL2    91  DPPC   H5R 11752   0.090000   1.008000
11753       HAL2    91  DPPC   H5S 11753   0.090000   1.008000
11754       CTL2    91  DPPC   C26 11754  -0.180000  12.011000
11755       HAL2    91  DPPC   H6R 11755   0.090000   1.008000
11756       HAL2    91  DPPC   H6S 11756   0.090000   1.008000
11757       CTL2    91  DPPC   C27 11757  -0.180000  12.011000
11758       HAL2    91  DPPC   H7R 11758   0.090000   1.008000
11759       HAL2    91  DPPC   H7S 11759   0.090000   1.008000
11760       CTL2    91  DPPC   C28 11760  -0.180000  12.011000
11761       HAL2    91  DPPC   H8R 11761   0.090000   1.008000
11762       HAL2    91  DPPC   H8S 11762   0.090000   1.008000
11763       CTL2    91  DPPC   C29 11763  -0.180000  12.011000
11764       HAL2    91  DPPC   H9R 11764   0.090000   1.008000
11765       HAL2    91  DPPC   H9S 11765   0.090000   1.008000
11766       CTL2    91  DPPC  C210 11766  -0.180000  12.011000
11767       HAL2    91  DPPC  H10R 11767   0.090000   1.008000
11768       HAL2    91  DPPC  H10S 11768   0.090000   1.008000
11769       CTL2    91  DPPC  C211 11769  -0.180000  12.011000
11770       HAL2    91  DPPC  H11R 11770   0.090000   1.008000
11771       HAL2    91  DPPC  H11S 11771   0.090000   1.008000
11772       CTL2    91  DPPC  C212 11772  -0.180000  12.011000
11773       HAL2    91  DPPC  H12R 11773   0.090000   1.008000
11774       HAL2    91  DPPC  H12S 11774   0.090000   1.008000
11775       CTL2    91  DPPC  C213 11775  -0.180000  12.011000
11776       HAL2    91  DPPC  H13R 11776   0.090000   1.008000
11777       HAL2    91  DPPC  H13S 11777   0.090000   1.008000
11778       CTL2    91  DPPC  C214 11778  -0.180000  12.011000
11779       HAL2    91  DPPC  H14R 11779   0.090000   1.008000
11780       HAL2    91  DPPC  H14S 11780   0.090000   1.008000
11781       CTL2    91  DPPC  C215 11781  -0.180000  12.011000
11782       HAL2    91  DPPC  H15R 11782   0.090000   1.008000
11783       HAL2    91  DPPC  H15S 11783   0.090000   1.008000
11784       CTL3    91  DPPC  C216 11784  -0.270000  12.011000
11785       HAL3    91  DPPC  H16R 11785   0.090000   1.008000
11786       HAL3    91  DPPC  H16S 11786   0.090000   1.008000
11787       HAL3    91  DPPC  H16T 11787   0.090000   1.008000
11788       CTL2    91  DPPC   C33 11788  -0.180000  12.011000
11789       HAL2    91  DPPC   H3X 11789   0.090000   1.008000
11790       HAL2    91  DPPC   H3Y 11790   0.090000   1.008000
11791       CTL2    91  DPPC   C34 11791  -0.180000  12.011000
11792       HAL2    91  DPPC   H4X 11792   0.090000   1.008000
11793       HAL2    91  DPPC   H4Y 11793   0.090000   1.008000
11794       CTL2    91  DPPC   C35 11794  -0.180000  12.011000
11795       HAL2    91  DPPC   H5X 11795   0.090000   1.008000
11796       HAL2    91  DPPC   H5Y 11796   0.090000   1.008000
11797       CTL2    91  DPPC   C36 11797  -0.180000  12.011000
11798       HAL2    91  DPPC   H6X 11798   0.090000   1.008000
11799       HAL2    91  DPPC   H6Y 11799   0.090000   1.008000
11800       CTL2    91  DPPC   C37 11800  -0.180000  12.011000
11801       HAL2    91  DPPC   H7X 11801   0.090000   1.008000
11802       HAL2    91  DPPC   H7Y 11802   0.090000   1.008000
11803       CTL2    91  DPPC   C38 11803  -0.180000  12.011000
11804       HAL2    91  DPPC   H8X 11804   0.090000   1.008000
11805       HAL2    91  DPPC   H8Y 11805   0.090000   1.008000
11806       CTL2    91  DPPC   C39 11806  -0.180000  12.011000
11807       HAL2    91  DPPC   H9X 11807   0.090000   1.008000
11808       HAL2    91  DPPC   H9Y 11808   0.090000   1.008000
11809       CTL2    91  DPPC  C310 11809  -0.180000  12.011000
11810       HAL2    91  DPPC  H10X 11810   0.090000   1.008000
11811       HAL2    91  DPPC  H10Y 11811   0.090000   1.008000
11812       CTL2    91  DPPC  C311 11812  -0.180000  12.011000
11813       HAL2    91  DPPC  H11X 11813   0.090000   1.008000
11814       HAL2    91  DPPC  H11Y 11814   0.090000   1.008000
11815       CTL2    91  DPPC  C312 11815  -0.180000  12.011000
11816       HAL2    91  DPPC  H12X 11816   0.090000   1.008000
11817       HAL2    91  DPPC  H12Y 11817   0.090000   1.008000
11818       CTL2    91  DPPC  C313 11818  -0.180000  12.011000
11819       HAL2    91  DPPC  H13X 11819   0.090000   1.008000
11820       HAL2    91  DPPC  H13Y 11820   0.090000   1.008000
11821       CTL2    91  DPPC  C314 11821  -0.180000  12.011000
11822       HAL2    91  DPPC  H14X 11822   0.090000   1.008000
11823       HAL2    91  DPPC  H14Y 11823   0.090000   1.008000
11824       CTL2    91  DPPC  C315 11824  -0.180000  12.011000
11825       HAL2    91  DPPC  H15X 11825   0.090000   1.008000
11826       HAL2    91  DPPC  H15Y 11826   0.090000   1.008000
11827       CTL3    91  DPPC  C316 11827  -0.270000  12.011000
11828       HAL3    91  DPPC  H16X 11828   0.090000   1.008000
11829       HAL3    91  DPPC  H16Y 11829   0.090000   1.008000
11830       HAL3    91  DPPC  H16Z 11830   0.090000   1.008000
11831        NTL    92  DPPC     N 11831  -0.600000  14.007000
11832       CTL5    92  DPPC   C13 11832  -0.350000  12.011000
11833         HL    92  DPPC  H13A 11833   0.250000   1.008000
11834         HL    92  DPPC  H13B 11834   0.250000   1.008000
11835         HL    92  DPPC  H13C 11835   0.250000   1.008000
11836       CTL5    92  DPPC   C14 11836  -0.350000  12.011000
11837         HL    92  DPPC  H14A 11837   0.250000   1.008000
11838         HL    92  DPPC  H14B 11838   0.250000   1.008000
11839         HL    92  DPPC  H14C 11839   0.250000   1.008000
11840       CTL5    92  DPPC   C15 11840  -0.350000  12.011000
11841         HL    92  DPPC  H15A 11841   0.250000   1.008000
11842         HL    92  DPPC  H15B 11842   0.250000   1.008000
11843         HL    92  DPPC  H15C 11843   0.250000   1.008000
11844       CTL2    92  DPPC   C12 11844  -0.100000  12.011000
11845         HL    92  DPPC  H12A 11845   0.250000   1.008000
11846         HL    92  DPPC  H12B 11846   0.250000   1.008000
11847       CTL2    92  DPPC   C11 11847  -0.080000  12.011000
11848       HAL2    92  DPPC  H11A 11848   0.090000   1.008000
11849       HAL2    92  DPPC  H11B 11849   0.090000   1.008000
11850         PL    92  DPPC     P 11850   1.500000  30.974001
11851        O2L    92  DPPC   O13 11851  -0.780000  15.999400
11852        O2L    92  DPPC   O14 11852  -0.780000  15.999400
11853       OSLP    92  DPPC   O11 11853  -0.570000  15.999400
11854       OSLP    92  DPPC   O12 11854  -0.570000  15.999400
11855       CTL2    92  DPPC    C1 11855  -0.080000  12.011000
11856       HAL2    92  DPPC    HA 11856   0.090000   1.008000
11857       HAL2    92  DPPC    HB 11857   0.090000   1.008000
11858       CTL1    92  DPPC    C2 11858   0.170000  12.011000
11859       HAL1    92  DPPC    HS 11859   0.090000   1.008000
11860        OSL    92  DPPC   O21 11860  -0.490000  15.999400
11861         CL    92  DPPC   C21 11861   0.900000  12.011000
11862        OBL    92  DPPC   O22 11862  -0.630000  15.999400
11863       CTL2    92  DPPC   C22 11863  -0.220000  12.011000
11864       HAL2    92  DPPC   H2R 11864   0.090000   1.008000
11865       HAL2    92  DPPC   H2S 11865   0.090000   1.008000
11866       CTL2    92  DPPC    C3 11866   0.080000  12.011000
11867       HAL2    92  DPPC    HX 11867   0.090000   1.008000
11868       HAL2    92  DPPC    HY 11868   0.090000   1.008000
11869        OSL    92  DPPC   O31 11869  -0.490000  15.999400
11870         CL    92  DPPC   C31 11870   0.900000  12.011000
11871        OBL    92  DPPC   O32 11871  -0.630000  15.999400
11872       CTL2    92  DPPC   C32 11872  -0.220000  12.011000
11873       HAL2    92  DPPC   H2X 11873   0.090000   1.008000
11874       HAL2    92  DPPC   H2Y 11874   0.090000   1.008000
11875       CTL2    92  DPPC   C23 11875  -0.180000  12.011000
11876       HAL2    92  DPPC   H3R 11876   0.090000   1.008000
11877       HAL2    92  DPPC   H3S 11877   0.090000   1.008000
11878       CTL2    92  DPPC   C24 11878  -0.180000  12.011000
11879       HAL2    92  DPPC   H4R 11879   0.090000   1.008000
11880       HAL2    92  DPPC   H4S 11880   0.090000   1.008000
11881       CTL2    92  DPPC   C25 11881  -0.180000  12.011000
11882       HAL2    92  DPPC   H5R 11882   0.090000   1.008000
11883       HAL2    92  DPPC   H5S 11883   0.090000   1.008000
11884       CTL2    92  DPPC   C26 11884  -0.180000  12.011000
11885       HAL2    92  DPPC   H6R 11885   0.090000   1.008000
11886       HAL2    92  DPPC   H6S 11886   0.090000   1.008000
11887       CTL2    92  DPPC   C27 11887  -0.180000  12.011000
11888       HAL2    92  DPPC   H7R 11888   0.090000   1.008000
11889       HAL2    92  DPPC   H7S 11889   0.090000   1.008000
11890       CTL2    92  DPPC   C28 11890  -0.180000  12.011000
11891       HAL2    92  DPPC   H8R 11891   0.090000   1.008000
11892       HAL2    92  DPPC   H8S 11892   0.090000   1.008000
11893       CTL2    92  DPPC   C29 11893  -0.180000  12.011000
11894       HAL2    92  DPPC   H9R 11894   0.090000   1.008000
11895       HAL2    92  DPPC   H9S 11895   0.090000   1.008000
11896       CTL2    92  DPPC  C210 11896  -0.180000  12.011000
11897       HAL2    92  DPPC  H10R 11897   0.090000   1.008000
11898       HAL2    92  DPPC  H10S 11898   0.090000   1.008000
11899       CTL2    92  DPPC  C211 11899  -0.180000  12.011000
11900       HAL2    92  DPPC  H11R 11900   0.090000   1.008000
11901       HAL2    92  DPPC  H11S 11901   0.090000   1.008000
11902       CTL2    92  DPPC  C212 11902  -0.180000  12.011000
11903       HAL2    92  DPPC  H12R 11903   0.090000   1.008000
11904       HAL2    92  DPPC  H12S 11904   0.090000   1.008000
11905       CTL2    92  DPPC  C213 11905  -0.180000  12.011000
11906       HAL2    92  DPPC  H13R 11906   0.090000   1.008000
11907       HAL2    92  DPPC  H13S 11907   0.090000   1.008000
11908       CTL2    92  DPPC  C214 11908  -0.180000  12.011000
11909       HAL2    92  DPPC  H14R 11909   0.090000   1.008000
11910       HAL2    92  DPPC  H14S 11910   0.090000   1.008000
11911       CTL2    92  DPPC  C215 11911  -0.180000  12.011000
11912       HAL2    92  DPPC  H15R 11912   0.090000   1.008000
11913       HAL2    92  DPPC  H15S 11913   0.090000   1.008000
11914       CTL3    92  DPPC  C216 11914  -0.270000  12.011000
11915       HAL3    92  DPPC  H16R 11915   0.090000   1.008000
11916       HAL3    92  DPPC  H16S 11916   0.090000   1.008000
11917       HAL3    92  DPPC  H16T 11917   0.090000   1.008000
11918       CTL2    92  DPPC   C33 11918  -0.180000  12.011000
11919       HAL2    92  DPPC   H3X 11919   0.090000   1.008000
11920       HAL2    92  DPPC   H3Y 11920   0.090000   1.008000
11921       CTL2    92  DPPC   C34 11921  -0.180000  12.011000
11922       HAL2    92  DPPC   H4X 11922   0.090000   1.008000
11923       HAL2    92  DPPC   H4Y 11923   0.090000   1.008000
11924       CTL2    92  DPPC   C35 11924  -0.180000  12.011000
11925       HAL2    92  DPPC   H5X 11925   0.090000   1.008000
11926       HAL2    92  DPPC   H5Y 11926   0.090000   1.008000
11927       CTL2    92  DPPC   C36 11927  -0.180000  12.011000
11928       HAL2    92  DPPC   H6X 11928   0.090000   1.008000
11929       HAL2    92  DPPC   H6Y 11929   0.090000   1.008000
11930       CTL2    92  DPPC   C37 11930  -0.180000  12.011000
11931       HAL2    92  DPPC   H7X 11931   0.090000   1.008000
11932       HAL2    92  DPPC   H7Y 11932   0.090000   1.008000
11933       CTL2    92  DPPC   C38 11933  -0.180000  12.011000
11934       HAL2    92  DPPC   H8X 11934   0.090000   1.008000
11935       HAL2    92  DPPC   H8Y 11935   0.090000   1.008000
11936       CTL2    92  DPPC   C39 11936  -0.180000  12.011000
11937       HAL2    92  DPPC   H9X 11937   0.090000   1.008000
11938       HAL2    92  DPPC   H9Y 11938   0.090000   1.008000
11939       CTL2    92  DPPC  C310 11939  -0.180000  12.011000
11940       HAL2    92  DPPC  H10X 11940   0.090000   1.008000
11941       HAL2    92  DPPC  H10Y 11941   0.090000   1.008000
11942       CTL2    92  DPPC  C311 11942  -0.180000  12.011000
11943       HAL2    92  DPPC  H11X 11943   0.090000   1.008000
11944       HAL2    92  DPPC  H11Y 11944   0.090000   1.008000
11945       CTL2    92  DPPC  C312 11945  -0.180000  12.011000
11946       HAL2    92  DPPC  H12X 11946   0.090000   1.008000
11947       HAL2    92  DPPC  H12Y 11947   0.090000   1.008000
11948       CTL2    92  DPPC  C313 11948  -0.180000  12.011000
11949       HAL2    92  DPPC  H13X 11949   0.090000   1.008000
11950       HAL2    92  DPPC  H13Y 11950   0.090000   1.008000
11951       CTL2    92  DPPC  C314 11951  -0.180000  12.011000
11952       HAL2    92  DPPC  H14X 11952   0.090000   1.008000
11953       HAL2    92  DPPC  H14Y 11953   0.090000   1.008000
11954       CTL2    92  DPPC  C315 11954  -0.180000  12.011000
11955       HAL2    92  DPPC  H15X 11955   0.090000   1.008000
11956       HAL2    92  DPPC  H15Y 11956   0.090000   1.008000
11957       CTL3    92  DPPC  C316 11957  -0.270000  12.011000
11958       HAL3    92  DPPC  H16X 11958   0.090000   1.008000
11959       HAL3    92  DPPC  H16Y 11959   0.090000   1.008000
11960       HAL3    92  DPPC  H16Z 11960   0.090000   1.008000
11961        NTL    93  DPPC     N 11961  -0.600000  14.007000
11962       CTL5    93  DPPC   C13 11962  -0.350000  12.011000
11963         HL    93  DPPC  H13A 11963   0.250000   1.008000
11964         HL    93  DPPC  H13B 11964   0.250000   1.008000
11965         HL    93  DPPC  H13C 11965   0.250000   1.008000
11966       CTL5    93  DPPC   C14 11966  -0.350000  12.011000
11967         HL    93  DPPC  H14A 11967   0.250000   1.008000
11968         HL    93  DPPC  H14B 11968   0.250000   1.008000
11969         HL    93  DPPC  H14C 11969   0.250000   1.008000
11970       CTL5    93  DPPC   C15 11970  -0.350000  12.011000
11971         HL    93  DPPC  H15A 11971   0.250000   1.008000
11972         HL    93  DPPC  H15B 11972   0.250000   1.008000
11973         HL    93  DPPC  H15C 11973   0.250000   1.008000
11974       CTL2    93  DPPC   C12 11974  -0.100000  12.011000
11975         HL    93  DPPC  H12A 11975   0.250000   1.008000
11976         HL    93  DPPC  H12B 11976   0.250000   1.008000
11977       CTL2    93  DPPC   C11 11977  -0.080000  12.011000
11978       HAL2    93  DPPC  H11A 11978   0.090000   1.008000
11979       HAL2    93  DPPC  H11B 11979   0.090000   1.008000
11980         PL    93  DPPC     P 11980   1.500000  30.974001
11981        O2L    93  DPPC   O13 11981  -0.780000  15.999400
11982        O2L    93  DPPC   O14 11982  -0.780000  15.999400
11983       OSLP    93  DPPC   O11 11983  -0.570000  15.999400
11984       OSLP    93  DPPC   O12 11984  -0.570000  15.999400
11985       CTL2    93  DPPC    C1 11985  -0.080000  12.011000
11986       HAL2    93  DPPC    HA 11986   0.090000   1.008000
11987       HAL2    93  DPPC    HB 11987   0.090000   1.008000
11988       CTL1    93  DPPC    C2 11988   0.170000  12.011000
11989       HAL1    93  DPPC    HS 11989   0.090000   1.008000
11990        OSL    93  DPPC   O21 11990  -0.490000  15.999400
11991         CL    93  DPPC   C21 11991   0.900000  12.011000
11992        OBL    93  DPPC   O22 11992  -0.630000  15.999400
11993       CTL2    93  DPPC   C22 11993  -0.220000  12.011000
11994       HAL2    93  DPPC   H2R 11994   0.090000   1.008000
11995       HAL2    93  DPPC   H2S 11995   0.090000   1.008000
11996       CTL2    93  DPPC    C3 11996   0.080000  12.011000
11997       HAL2    93  DPPC    HX 11997   0.090000   1.008000
11998       HAL2    93  DPPC    HY 11998   0.090000   1.008000
11999        OSL    93  DPPC   O31 11999  -0.490000  15.999400
12000         CL    93  DPPC   C31 12000   0.900000  12.011000
12001        OBL    93  DPPC   O32 12001  -0.630000  15.999400
12002       CTL2    93  DPPC   C32 12002  -0.220000  12.011000
12003       HAL2    93  DPPC   H2X 12003   0.090000   1.008000
12004       HAL2    93  DPPC   H2Y 12004   0.090000   1.008000
12005       CTL2    93  DPPC   C23 12005  -0.180000  12.011000
12006       HAL2    93  DPPC   H3R 12006   0.090000   1.008000
12007       HAL2    93  DPPC   H3S 12007   0.090000   1.008000
12008       CTL2    93  DPPC   C24 12008  -0.180000  12.011000
12009       HAL2    93  DPPC   H4R 12009   0.090000   1.008000
12010       HAL2    93  DPPC   H4S 12010   0.090000   1.008000
12011       CTL2    93  DPPC   C25 12011  -0.180000  12.011000
12012       HAL2    93  DPPC   H5R 12012   0.090000   1.008000
12013       HAL2    93  DPPC   H5S 12013   0.090000   1.008000
12014       CTL2    93  DPPC   C26 12014  -0.180000  12.011000
12015       HAL2    93  DPPC   H6R 12015   0.090000   1.008000
12016       HAL2    93  DPPC   H6S 12016   0.090000   1.008000
12017       CTL2    93  DPPC   C27 12017  -0.180000  12.011000
12018       HAL2    93  DPPC   H7R 12018   0.090000   1.008000
12019       HAL2    93  DPPC   H7S 12019   0.090000   1.008000
12020       CTL2    93  DPPC   C28 12020  -0.180000  12.011000
12021       HAL2    93  DPPC   H8R 12021   0.090000   1.008000
12022       HAL2    93  DPPC   H8S 12022   0.090000   1.008000
12023       CTL2    93  DPPC   C29 12023  -0.180000  12.011000
12024       HAL2    93  DPPC   H9R 12024   0.090000   1.008000
12025       HAL2    93  DPPC   H9S 12025   0.090000   1.008000
12026       CTL2    93  DPPC  C210 12026  -0.180000  12.011000
12027       HAL2    93  DPPC  H10R 12027   0.090000   1.008000
12028       HAL2    93  DPPC  H10S 12028   0.090000   1.008000
12029       CTL2    93  DPPC  C211 12029  -0.180000  12.011000
12030       HAL2    93  DPPC  H11R 12030   0.090000   1.008000
12031       HAL2    93  DPPC  H11S 12031   0.090000   1.008000
12032       CTL2    93  DPPC  C212 12032  -0.180000  12.011000
12033       HAL2    93  DPPC  H12R 12033   0.090000   1.008000
12034       HAL2    93  DPPC  H12S 12034   0.090000   1.008000
12035       CTL2    93  DPPC  C213 12035  -0.180000  12.011000
12036       HAL2    93  DPPC  H13R 12036   0.090000   1.008000
12037       HAL2    93  DPPC  H13S 12037   0.090000   1.008000
12038       CTL2    93  DPPC  C214 12038  -0.180000  12.011000
12039       HAL2    93  DPPC  H14R 12039   0.090000   1.008000
12040       HAL2    93  DPPC  H14S 12040   0.090000   1.008000
12041       CTL2    93  DPPC  C215 12041  -0.180000  12.011000
12042       HAL2    93  DPPC  H15R 12042   0.090000   1.008000
12043       HAL2    93  DPPC  H15S 12043   0.090000   1.008000
12044       CTL3    93  DPPC  C216 12044  -0.270000  12.011000
12045       HAL3    93  DPPC  H16R 12045   0.090000   1.008000
12046       HAL3    93  DPPC  H16S 12046   0.090000   1.008000
12047       HAL3    93  DPPC  H16T 12047   0.090000   1.008000
12048       CTL2    93  DPPC   C33 12048  -0.180000  12.011000
12049       HAL2    93  DPPC   H3X 12049   0.090000   1.008000
12050       HAL2    93  DPPC   H3Y 12050   0.090000   1.008000
12051       CTL2    93  DPPC   C34 12051  -0.180000  12.011000
12052       HAL2    93  DPPC   H4X 12052   0.090000   1.008000
12053       HAL2    93  DPPC   H4Y 12053   0.090000   1.008000
12054       CTL2    93  DPPC   C35 12054  -0.180000  12.011000
12055       HAL2    93  DPPC   H5X 12055   0.090000   1.008000
12056       HAL2    93  DPPC   H5Y 12056   0.090000   1.008000
12057       CTL2    93  DPPC   C36 12057  -0.180000  12.011000
12058       HAL2    93  DPPC   H6X 12058   0.090000   1.008000
12059       HAL2    93  DPPC   H6Y 12059   0.090000   1.008000
12060       CTL2    93  DPPC   C37 12060  -0.180000  12.011000
12061       HAL2    93  DPPC   H7X 12061   0.090000   1.008000
12062       HAL2    93  DPPC   H7Y 12062   0.090000   1.008000
12063       CTL2    93  DPPC   C38 12063  -0.180000  12.011000
12064       HAL2    93  DPPC   H8X 12064   0.090000   1.008000
12065       HAL2    93  DPPC   H8Y 12065   0.090000   1.008000
12066       CTL2    93  DPPC   C39 12066  -0.180000  12.011000
12067       HAL2    93  DPPC   H9X 12067   0.090000   1.008000
12068       HAL2    93  DPPC   H9Y 12068   0.090000   1.008000
12069       CTL2    93  DPPC  C310 12069  -0.180000  12.011000
12070       HAL2    93  DPPC  H10X 12070   0.090000   1.008000
12071       HAL2    93  DPPC  H10Y 12071   0.090000   1.008000
12072       CTL2    93  DPPC  C311 12072  -0.180000  12.011000
12073       HAL2    93  DPPC  H11X 12073   0.090000   1.008000
12074       HAL2    93  DPPC  H11Y 12074   0.090000   1.008000
12075       CTL2    93  DPPC  C312 12075  -0.180000  12.011000
12076       HAL2    93  DPPC  H12X 12076   0.090000   1.008000
12077       HAL2    93  DPPC  H12Y 12077   0.090000   1.008000
12078       CTL2    93  DPPC  C313 12078  -0.180000  12.011000
12079       HAL2    93  DPPC  H13X 12079   0.090000   1.008000
12080       HAL2    93  DPPC  H13Y 12080   0.090000   1.008000
12081       CTL2    93  DPPC  C314 12081  -0.180000  12.011000
12082       HAL2    93  DPPC  H14X 12082   0.090000   1.008000
12083       HAL2    93  DPPC  H14Y 12083   0.090000   1.008000
12084       CTL2    93  DPPC  C315 12084  -0.180000  12.011000
12085       HAL2    93  DPPC  H15X 12085   0.090000   1.008000
12086       HAL2    93  DPPC  H15Y 12086   0.090000   1.008000
12087       CTL3    93  DPPC  C316 12087  -0.270000  12.011000
12088       HAL3    93  DPPC  H16X 12088   0.090000   1.008000
12089       HAL3    93  DPPC  H16Y 12089   0.090000   1.008000
12090       HAL3    93  DPPC  H16Z 12090   0.090000   1.008000
12091        NTL    94  DPPC     N 12091  -0.600000  14.007000
12092       CTL5    94  DPPC   C13 12092  -0.350000  12.011000
12093         HL    94  DPPC  H13A 12093   0.250000   1.008000
12094         HL    94  DPPC  H13B 12094   0.250000   1.008000
12095         HL    94  DPPC  H13C 12095   0.250000   1.008000
12096       CTL5    94  DPPC   C14 12096  -0.350000  12.011000
12097         HL    94  DPPC  H14A 12097   0.250000   1.008000
12098         HL    94  DPPC  H14B 12098   0.250000   1.008000
12099         HL    94  DPPC  H14C 12099   0.250000   1.008000
12100       CTL5    94  DPPC   C15 12100  -0.350000  12.011000
12101         HL    94  DPPC  H15A 12101   0.250000   1.008000
12102         HL    94  DPPC  H15B 12102   0.250000   1.008000
12103         HL    94  DPPC  H15C 12103   0.250000   1.008000
12104       CTL2    94  DPPC   C12 12104  -0.100000  12.011000
12105         HL    94  DPPC  H12A 12105   0.250000   1.008000
12106         HL    94  DPPC  H12B 12106   0.250000   1.008000
12107       CTL2    94  DPPC   C11 12107  -0.080000  12.011000
12108       HAL2    94  DPPC  H11A 12108   0.090000   1.008000
12109       HAL2    94  DPPC  H11B 12109   0.090000   1.008000
12110         PL    94  DPPC     P 12110   1.500000  30.974001
12111        O2L    94  DPPC   O13 12111  -0.780000  15.999400
12112        O2L    94  DPPC   O14 12112  -0.780000  15.999400
12113       OSLP    94  DPPC   O11 12113  -0.570000  15.999400
12114       OSLP    94  DPPC   O12 12114  -0.570000  15.999400
12115       CTL2    94  DPPC    C1 12115  -0.080000  12.011000
12116       HAL2    94  DPPC    HA 12116   0.090000   1.008000
12117       HAL2    94  DPPC    HB 12117   0.090000   1.008000
12118       CTL1    94  DPPC    C2 12118   0.170000  12.011000
12119       HAL1    94  DPPC    HS 12119   0.090000   1.008000
12120        OSL    94  DPPC   O21 12120  -0.490000  15.999400
12121         CL    94  DPPC   C21 12121   0.900000  12.011000
12122        OBL    94  DPPC   O22 12122  -0.630000  15.999400
12123       CTL2    94  DPPC   C22 12123  -0.220000  12.011000
12124       HAL2    94  DPPC   H2R 12124   0.090000   1.008000
12125       HAL2    94  DPPC   H2S 12125   0.090000   1.008000
12126       CTL2    94  DPPC    C3 12126   0.080000  12.011000
12127       HAL2    94  DPPC    HX 12127   0.090000   1.008000
12128       HAL2    94  DPPC    HY 12128   0.090000   1.008000
12129        OSL    94  DPPC   O31 12129  -0.490000  15.999400
12130         CL    94  DPPC   C31 12130   0.900000  12.011000
12131        OBL    94  DPPC   O32 12131  -0.630000  15.999400
12132       CTL2    94  DPPC   C32 12132  -0.220000  12.011000
12133       HAL2    94  DPPC   H2X 12133   0.090000   1.008000
12134       HAL2    94  DPPC   H2Y 12134   0.090000   1.008000
12135       CTL2    94  DPPC   C23 12135  -0.180000  12.011000
12136       HAL2    94  DPPC   H3R 12136   0.090000   1.008000
12137       HAL2    94  DPPC   H3S 12137   0.090000   1.008000
12138       CTL2    94  DPPC   C24 12138  -0.180000  12.011000
12139       HAL2    94  DPPC   H4R 12139   0.090000   1.008000
12140       HAL2    94  DPPC   H4S 12140   0.090000   1.008000
12141       CTL2    94  DPPC   C25 12141  -0.180000  12.011000
12142       HAL2    94  DPPC   H5R 12142   0.090000   1.008000
12143       HAL2    94  DPPC   H5S 12143   0.090000   1.008000
12144       CTL2    94  DPPC   C26 12144  -0.180000  12.011000
12145       HAL2    94  DPPC   H6R 12145   0.090000   1.008000
12146       HAL2    94  DPPC   H6S 12146   0.090000   1.008000
12147       CTL2    94  DPPC   C27 12147  -0.180000  12.011000
12148       HAL2    94  DPPC   H7R 12148   0.090000   1.008000
12149       HAL2    94  DPPC   H7S 12149   0.090000   1.008000
12150       CTL2    94  DPPC   C28 12150  -0.180000  12.011000
12151       HAL2    94  DPPC   H8R 12151   0.090000   1.008000
12152       HAL2    94  DPPC   H8S 12152   0.090000   1.008000
12153       CTL2    94  DPPC   C29 12153  -0.180000  12.011000
12154       HAL2    94  DPPC   H9R 12154   0.090000   1.008000
12155       HAL2    94  DPPC   H9S 12155   0.090000   1.008000
12156       CTL2    94  DPPC  C210 12156  -0.180000  12.011000
12157       HAL2    94  DPPC  H10R 12157   0.090000   1.008000
12158       HAL2    94  DPPC  H10S 12158   0.090000   1.008000
12159       CTL2    94  DPPC  C211 12159  -0.180000  12.011000
12160       HAL2    94  DPPC  H11R 12160   0.090000   1.008000
12161       HAL2    94  DPPC  H11S 12161   0.090000   1.008000
12162       CTL2    94  DPPC  C212 12162  -0.180000  12.011000
12163       HAL2    94  DPPC  H12R 12163   0.090000   1.008000
12164       HAL2    94  DPPC  H12S 12164   0.090000   1.008000
12165       CTL2    94  DPPC  C213 12165  -0.180000  12.011000
12166       HAL2    94  DPPC  H13R 12166   0.090000   1.008000
12167       HAL2    94  DPPC  H13S 12167   0.090000   1.008000
12168       CTL2    94  DPPC  C214 12168  -0.180000  12.011000
12169       HAL2    94  DPPC  H14R 12169   0.090000   1.008000
12170       HAL2    94  DPPC  H14S 12170   0.090000   1.008000
12171       CTL2    94  DPPC  C215 12171  -0.180000  12.011000
12172       HAL2    94  DPPC  H15R 12172   0.090000   1.008000
12173       HAL2    94  DPPC  H15S 12173   0.090000   1.008000
12174       CTL3    94  DPPC  C216 12174  -0.270000  12.011000
12175       HAL3    94  DPPC  H16R 12175   0.090000   1.008000
12176       HAL3    94  DPPC  H16S 12176   0.090000   1.008000
12177       HAL3    94  DPPC  H16T 12177   0.090000   1.008000
12178       CTL2    94  DPPC   C33 12178  -0.180000  12.011000
12179       HAL2    94  DPPC   H3X 12179   0.090000   1.008000
12180       HAL2    94  DPPC   H3Y 12180   0.090000   1.008000
12181       CTL2    94  DPPC   C34 12181  -0.180000  12.011000
12182       HAL2    94  DPPC   H4X 12182   0.090000   1.008000
12183       HAL2    94  DPPC   H4Y 12183   0.090000   1.008000
12184       CTL2    94  DPPC   C35 12184  -0.180000  12.011000
12185       HAL2    94  DPPC   H5X 12185   0.090000   1.008000
12186       HAL2    94  DPPC   H5Y 12186   0.090000   1.008000
12187       CTL2    94  DPPC   C36 12187  -0.180000  12.011000
12188       HAL2    94  DPPC   H6X 12188   0.090000   1.008000
12189       HAL2    94  DPPC   H6Y 12189   0.090000   1.008000
12190       CTL2    94  DPPC   C37 12190  -0.180000  12.011000
12191       HAL2    94  DPPC   H7X 12191   0.090000   1.008000
12192       HAL2    94  DPPC   H7Y 12192   0.090000   1.008000
12193       CTL2    94  DPPC   C38 12193  -0.180000  12.011000
12194       HAL2    94  DPPC   H8X 12194   0.090000   1.008000
12195       HAL2    94  DPPC   H8Y 12195   0.090000   1.008000
12196       CTL2    94  DPPC   C39 12196  -0.180000  12.011000
12197       HAL2    94  DPPC   H9X 12197   0.090000   1.008000
12198       HAL2    94  DPPC   H9Y 12198   0.090000   1.008000
12199       CTL2    94  DPPC  C310 12199  -0.180000  12.011000
12200       HAL2    94  DPPC  H10X 12200   0.090000   1.008000
12201       HAL2    94  DPPC  H10Y 12201   0.090000   1.008000
12202       CTL2    94  DPPC  C311 12202  -0.180000  12.011000
12203       HAL2    94  DPPC  H11X 12203   0.090000   1.008000
12204       HAL2    94  DPPC  H11Y 12204   0.090000   1.008000
12205       CTL2    94  DPPC  C312 12205  -0.180000  12.011000
12206       HAL2    94  DPPC  H12X 12206   0.090000   1.008000
12207       HAL2    94  DPPC  H12Y 12207   0.090000   1.008000
12208       CTL2    94  DPPC  C313 12208  -0.180000  12.011000
12209       HAL2    94  DPPC  H13X 12209   0.090000   1.008000
12210       HAL2    94  DPPC  H13Y 12210   0.090000   1.008000
12211       CTL2    94  DPPC  C314 12211  -0.180000  12.011000
12212       HAL2    94  DPPC  H14X 12212   0.090000   1.008000
12213       HAL2    94  DPPC  H14Y 12213   0.090000   1.008000
12214       CTL2    94  DPPC  C315 12214  -0.180000  12.011000
12215       HAL2    94  DPPC  H15X 12215   0.090000   1.008000
12216       HAL2    94  DPPC  H15Y 12216   0.090000   1.008000
12217       CTL3    94  DPPC  C316 12217  -0.270000  12.011000
12218       HAL3    94  DPPC  H16X 12218   0.090000   1.008000
12219       HAL3    94  DPPC  H16Y 12219   0.090000   1.008000
12220       HAL3    94  DPPC  H16Z 12220   0.090000   1.008000
12221        NTL    95  DPPC     N 12221  -0.600000  14.007000
12222       CTL5    95  DPPC   C13 12222  -0.350000  12.011000
12223         HL    95  DPPC  H13A 12223   0.250000   1.008000
12224         HL    95  DPPC  H13B 12224   0.250000   1.008000
12225         HL    95  DPPC  H13C 12225   0.250000   1.008000
12226       CTL5    95  DPPC   C14 12226  -0.350000  12.011000
12227         HL    95  DPPC  H14A 12227   0.250000   1.008000
12228         HL    95  DPPC  H14B 12228   0.250000   1.008000
12229         HL    95  DPPC  H14C 12229   0.250000   1.008000
12230       CTL5    95  DPPC   C15 12230  -0.350000  12.011000
12231         HL    95  DPPC  H15A 12231   0.250000   1.008000
12232         HL    95  DPPC  H15B 12232   0.250000   1.008000
12233         HL    95  DPPC  H15C 12233   0.250000   1.008000
12234       CTL2    95  DPPC   C12 12234  -0.100000  12.011000
12235         HL    95  DPPC  H12A 12235   0.250000   1.008000
12236         HL    95  DPPC  H12B 12236   0.250000   1.008000
12237       CTL2    95  DPPC   C11 12237  -0.080000  12.011000
12238       HAL2    95  DPPC  H11A 12238   0.090000   1.008000
12239       HAL2    95  DPPC  H11B 12239   0.090000   1.008000
12240         PL    95  DPPC     P 12240   1.500000  30.974001
12241        O2L    95  DPPC   O13 12241  -0.780000  15.999400
12242        O2L    95  DPPC   O14 12242  -0.780000  15.999400
12243       OSLP    95  DPPC   O11 12243  -0.570000  15.999400
12244       OSLP    95  DPPC   O12 12244  -0.570000  15.999400
12245       CTL2    95  DPPC    C1 12245  -0.080000  12.011000
12246       HAL2    95  DPPC    HA 12246   0.090000   1.008000
12247       HAL2    95  DPPC    HB 12247   0.090000   1.008000
12248       CTL1    95  DPPC    C2 12248   0.170000  12.011000
12249       HAL1    95  DPPC    HS 12249   0.090000   1.008000
12250        OSL    95  DPPC   O21 12250  -0.490000  15.999400
12251         CL    95  DPPC   C21 12251   0.900000  12.011000
12252        OBL    95  DPPC   O22 12252  -0.630000  15.999400
12253       CTL2    95  DPPC   C22 12253  -0.220000  12.011000
12254       HAL2    95  DPPC   H2R 12254   0.090000   1.008000
12255       HAL2    95  DPPC   H2S 12255   0.090000   1.008000
12256       CTL2    95  DPPC    C3 12256   0.080000  12.011000
12257       HAL2    95  DPPC    HX 12257   0.090000   1.008000
12258       HAL2    95  DPPC    HY 12258   0.090000   1.008000
12259        OSL    95  DPPC   O31 12259  -0.490000  15.999400
12260         CL    95  DPPC   C31 12260   0.900000  12.011000
12261        OBL    95  DPPC   O32 12261  -0.630000  15.999400
12262       CTL2    95  DPPC   C32 12262  -0.220000  12.011000
12263       HAL2    95  DPPC   H2X 12263   0.090000   1.008000
12264       HAL2    95  DPPC   H2Y 12264   0.090000   1.008000
12265       CTL2    95  DPPC   C23 12265  -0.180000  12.011000
12266       HAL2    95  DPPC   H3R 12266   0.090000   1.008000
12267       HAL2    95  DPPC   H3S 12267   0.090000   1.008000
12268       CTL2    95  DPPC   C24 12268  -0.180000  12.011000
12269       HAL2    95  DPPC   H4R 12269   0.090000   1.008000
12270       HAL2    95  DPPC   H4S 12270   0.090000   1.008000
12271       CTL2    95  DPPC   C25 12271  -0.180000  12.011000
12272       HAL2    95  DPPC   H5R 12272   0.090000   1.008000
12273       HAL2    95  DPPC   H5S 12273   0.090000   1.008000
12274       CTL2    95  DPPC   C26 12274  -0.180000  12.011000
12275       HAL2    95  DPPC   H6R 12275   0.090000   1.008000
12276       HAL2    95  DPPC   H6S 12276   0.090000   1.008000
12277       CTL2    95  DPPC   C27 12277  -0.180000  12.011000
12278       HAL2    95  DPPC   H7R 12278   0.090000   1.008000
12279       HAL2    95  DPPC   H7S 12279   0.090000   1.008000
12280       CTL2    95  DPPC   C28 12280  -0.180000  12.011000
12281       HAL2    95  DPPC   H8R 12281   0.090000   1.008000
12282       HAL2    95  DPPC   H8S 12282   0.090000   1.008000
12283       CTL2    95  DPPC   C29 12283  -0.180000  12.011000
12284       HAL2    95  DPPC   H9R 12284   0.090000   1.008000
12285       HAL2    95  DPPC   H9S 12285   0.090000   1.008000
12286       CTL2    95  DPPC  C210 12286  -0.180000  12.011000
12287       HAL2    95  DPPC  H10R 12287   0.090000   1.008000
12288       HAL2    95  DPPC  H10S 12288   0.090000   1.008000
12289       CTL2    95  DPPC  C211 12289  -0.180000  12.011000
12290       HAL2    95  DPPC  H11R 12290   0.090000   1.008000
12291       HAL2    95  DPPC  H11S 12291   0.090000   1.008000
12292       CTL2    95  DPPC  C212 12292  -0.180000  12.011000
12293       HAL2    95  DPPC  H12R 12293   0.090000   1.008000
12294       HAL2    95  DPPC  H12S 12294   0.090000   1.008000
12295       CTL2    95  DPPC  C213 12295  -0.180000  12.011000
12296       HAL2    95  DPPC  H13R 12296   0.090000   1.008000
12297       HAL2    95  DPPC  H13S 12297   0.090000   1.008000
12298       CTL2    95  DPPC  C214 12298  -0.180000  12.011000
12299       HAL2    95  DPPC  H14R 12299   0.090000   1.008000
12300       HAL2    95  DPPC  H14S 12300   0.090000   1.008000
12301       CTL2    95  DPPC  C215 12301  -0.180000  12.011000
12302       HAL2    95  DPPC  H15R 12302   0.090000   1.008000
12303       HAL2    95  DPPC  H15S 12303   0.090000   1.008000
12304       CTL3    95  DPPC  C216 12304  -0.270000  12.011000
12305       HAL3    95  DPPC  H16R 12305   0.090000   1.008000
12306       HAL3    95  DPPC  H16S 12306   0.090000   1.008000
12307       HAL3    95  DPPC  H16T 12307   0.090000   1.008000
12308       CTL2    95  DPPC   C33 12308  -0.180000  12.011000
12309       HAL2    95  DPPC   H3X 12309   0.090000   1.008000
12310       HAL2    95  DPPC   H3Y 12310   0.090000   1.008000
12311       CTL2    95  DPPC   C34 12311  -0.180000  12.011000
12312       HAL2    95  DPPC   H4X 12312   0.090000   1.008000
12313       HAL2    95  DPPC   H4Y 12313   0.090000   1.008000
12314       CTL2    95  DPPC   C35 12314  -0.180000  12.011000
12315       HAL2    95  DPPC   H5X 12315   0.090000   1.008000
12316       HAL2    95  DPPC   H5Y 12316   0.090000   1.008000
12317       CTL2    95  DPPC   C36 12317  -0.180000  12.011000
12318       HAL2    95  DPPC   H6X 12318   0.090000   1.008000
12319       HAL2    95  DPPC   H6Y 12319   0.090000   1.008000
12320       CTL2    95  DPPC   C37 12320  -0.180000  12.011000
12321       HAL2    95  DPPC   H7X 12321   0.090000   1.008000
12322       HAL2    95  DPPC   H7Y 12322   0.090000   1.008000
12323       CTL2    95  DPPC   C38 12323  -0.180000  12.011000
12324       HAL2    95  DPPC   H8X 12324   0.090000   1.008000
12325       HAL2    95  DPPC   H8Y 12325   0.090000   1.008000
12326       CTL2    95  DPPC   C39 12326  -0.180000  12.011000
12327       HAL2    95  DPPC   H9X 12327   0.090000   1.008000
12328       HAL2    95  DPPC   H9Y 12328   0.090000   1.008000
12329       CTL2    95  DPPC  C310 12329  -0.180000  12.011000
12330       HAL2    95  DPPC  H10X 12330   0.090000   1.008000
12331       HAL2    95  DPPC  H10Y 12331   0.090000   1.008000
12332       CTL2    95  DPPC  C311 12332  -0.180000  12.011000
12333       HAL2    95  DPPC  H11X 12333   0.090000   1.008000
12334       HAL2    95  DPPC  H11Y 12334   0.090000   1.008000
12335       CTL2    95  DPPC  C312 12335  -0.180000  12.011000
12336       HAL2    95  DPPC  H12X 12336   0.090000   1.008000
12337       HAL2    95  DPPC  H12Y 12337   0.090000   1.008000
12338       CTL2    95  DPPC  C313 12338  -0.180000  12.011000
12339       HAL2    95  DPPC  H13X 12339   0.090000   1.008000
12340       HAL2    95  DPPC  H13Y 12340   0.090000   1.008000
12341       CTL2    95  DPPC  C314 12341  -0.180000  12.011000
12342       HAL2    95  DPPC  H14X 12342   0.090000   1.008000
12343       HAL2    95  DPPC  H14Y 12343   0.090000   1.008000
12344       CTL2    95  DPPC  C315 12344  -0.180000  12.011000
12345       HAL2    95  DPPC  H15X 12345   0.090000   1.008000
12346       HAL2    95  DPPC  H15Y 12346   0.090000   1.008000
12347       CTL3    95  DPPC  C316 12347  -0.270000  12.011000
12348       HAL3    95  DPPC  H16X 12348   0.090000   1.008000
12349       HAL3    95  DPPC  H16Y 12349   0.090000   1.008000
12350       HAL3    95  DPPC  H16Z 12350   0.090000   1.008000
12351        NTL    96  DPPC     N 12351  -0.600000  14.007000
12352       CTL5    96  DPPC   C13 12352  -0.350000  12.011000
12353         HL    96  DPPC  H13A 12353   0.250000   1.008000
12354         HL    96  DPPC  H13B 12354   0.250000   1.008000
12355         HL    96  DPPC  H13C 12355   0.250000   1.008000
12356       CTL5    96  DPPC   C14 12356  -0.350000  12.011000
12357         HL    96  DPPC  H14A 12357   0.250000   1.008000
12358         HL    96  DPPC  H14B 12358   0.250000   1.008000
12359         HL    96  DPPC  H14C 12359   0.250000   1.008000
12360       CTL5    96  DPPC   C15 12360  -0.350000  12.011000
12361         HL    96  DPPC  H15A 12361   0.250000   1.008000
12362         HL    96  DPPC  H15B 12362   0.250000   1.008000
12363         HL    96  DPPC  H15C 12363   0.250000   1.008000
12364       CTL2    96  DPPC   C12 12364  -0.100000  12.011000
12365         HL    96  DPPC  H12A 12365   0.250000   1.008000
12366         HL    96  DPPC  H12B 12366   0.250000   1.008000
12367       CTL2    96  DPPC   C11 12367  -0.080000  12.011000
12368       HAL2    96  DPPC  H11A 12368   0.090000   1.008000
12369       HAL2    96  DPPC  H11B 12369   0.090000   1.008000
12370         PL    96  DPPC     P 12370   1.500000  30.974001
12371        O2L    96  DPPC   O13 12371  -0.780000  15.999400
12372        O2L    96  DPPC   O14 12372  -0.780000  15.999400
12373       OSLP    96  DPPC   O11 12373  -0.570000  15.999400
12374       OSLP    96  DPPC   O12 12374  -0.570000  15.999400
12375       CTL2    96  DPPC    C1 12375  -0.080000  12.011000
12376       HAL2    96  DPPC    HA 12376   0.090000   1.008000
12377       HAL2    96  DPPC    HB 12377   0.090000   1.008000
12378       CTL1    96  DPPC    C2 12378   0.170000  12.011000
12379       HAL1    96  DPPC    HS 12379   0.090000   1.008000
12380        OSL    96  DPPC   O21 12380  -0.490000  15.999400
12381         CL    96  DPPC   C21 12381   0.900000  12.011000
12382        OBL    96  DPPC   O22 12382  -0.630000  15.999400
12383       CTL2    96  DPPC   C22 12383  -0.220000  12.011000
12384       HAL2    96  DPPC   H2R 12384   0.090000   1.008000
12385       HAL2    96  DPPC   H2S 12385   0.090000   1.008000
12386       CTL2    96  DPPC    C3 12386   0.080000  12.011000
12387       HAL2    96  DPPC    HX 12387   0.090000   1.008000
12388       HAL2    96  DPPC    HY 12388   0.090000   1.008000
12389        OSL    96  DPPC   O31 12389  -0.490000  15.999400
12390         CL    96  DPPC   C31 12390   0.900000  12.011000
12391        OBL    96  DPPC   O32 12391  -0.630000  15.999400
12392       CTL2    96  DPPC   C32 12392  -0.220000  12.011000
12393       HAL2    96  DPPC   H2X 12393   0.090000   1.008000
12394       HAL2    96  DPPC   H2Y 12394   0.090000   1.008000
12395       CTL2    96  DPPC   C23 12395  -0.180000  12.011000
12396       HAL2    96  DPPC   H3R 12396   0.090000   1.008000
12397       HAL2    96  DPPC   H3S 12397   0.090000   1.008000
12398       CTL2    96  DPPC   C24 12398  -0.180000  12.011000
12399       HAL2    96  DPPC   H4R 12399   0.090000   1.008000
12400       HAL2    96  DPPC   H4S 12400   0.090000   1.008000
12401       CTL2    96  DPPC   C25 12401  -0.180000  12.011000
12402       HAL2    96  DPPC   H5R 12402   0.090000   1.008000
12403       HAL2    96  DPPC   H5S 12403   0.090000   1.008000
12404       CTL2    96  DPPC   C26 12404  -0.180000  12.011000
12405       HAL2    96  DPPC   H6R 12405   0.090000   1.008000
12406       HAL2    96  DPPC   H6S 12406   0.090000   1.008000
12407       CTL2    96  DPPC   C27 12407  -0.180000  12.011000
12408       HAL2    96  DPPC   H7R 12408   0.090000   1.008000
12409       HAL2    96  DPPC   H7S 12409   0.090000   1.008000
12410       CTL2    96  DPPC   C28 12410  -0.180000  12.011000
12411       HAL2    96  DPPC   H8R 12411   0.090000   1.008000
12412       HAL2    96  DPPC   H8S 12412   0.090000   1.008000
12413       CTL2    96  DPPC   C29 12413  -0.180000  12.011000
12414       HAL2    96  DPPC   H9R 12414   0.090000   1.008000
12415       HAL2    96  DPPC   H9S 12415   0.090000   1.008000
12416       CTL2    96  DPPC  C210 12416  -0.180000  12.011000
12417       HAL2    96  DPPC  H10R 12417   0.090000   1.008000
12418       HAL2    96  DPPC  H10S 12418   0.090000   1.008000
12419       CTL2    96  DPPC  C211 12419  -0.180000  12.011000
12420       HAL2    96  DPPC  H11R 12420   0.090000   1.008000
12421       HAL2    96  DPPC  H11S 12421   0.090000   1.008000
12422       CTL2    96  DPPC  C212 12422  -0.180000  12.011000
12423       HAL2    96  DPPC  H12R 12423   0.090000   1.008000
12424       HAL2    96  DPPC  H12S 12424   0.090000   1.008000
12425       CTL2    96  DPPC  C213 12425  -0.180000  12.011000
12426       HAL2    96  DPPC  H13R 12426   0.090000   1.008000
12427       HAL2    96  DPPC  H13S 12427   0.090000   1.008000
12428       CTL2    96  DPPC  C214 12428  -0.180000  12.011000
12429       HAL2    96  DPPC  H14R 12429   0.090000   1.008000
12430       HAL2    96  DPPC  H14S 12430   0.090000   1.008000
12431       CTL2    96  DPPC  C215 12431  -0.180000  12.011000
12432       HAL2    96  DPPC  H15R 12432   0.090000   1.008000
12433       HAL2    96  DPPC  H15S 12433   0.090000   1.008000
12434       CTL3    96  DPPC  C216 12434  -0.270000  12.011000
12435       HAL3    96  DPPC  H16R 12435   0.090000   1.008000
12436       HAL3    96  DPPC  H16S 12436   0.090000   1.008000
12437       HAL3    96  DPPC  H16T 12437   0.090000   1.008000
12438       CTL2    96  DPPC   C33 12438  -0.180000  12.011000
12439       HAL2    96  DPPC   H3X 12439   0.090000   1.008000
12440       HAL2    96  DPPC   H3Y 12440   0.090000   1.008000
12441       CTL2    96  DPPC   C34 12441  -0.180000  12.011000
12442       HAL2    96  DPPC   H4X 12442   0.090000   1.008000
12443       HAL2    96  DPPC   H4Y 12443   0.090000   1.008000
12444       CTL2    96  DPPC   C35 12444  -0.180000  12.011000
12445       HAL2    96  DPPC   H5X 12445   0.090000   1.008000
12446       HAL2    96  DPPC   H5Y 12446   0.090000   1.008000
12447       CTL2    96  DPPC   C36 12447  -0.180000  12.011000
12448       HAL2    96  DPPC   H6X 12448   0.090000   1.008000
12449       HAL2    96  DPPC   H6Y 12449   0.090000   1.008000
12450       CTL2    96  DPPC   C37 12450  -0.180000  12.011000
12451       HAL2    96  DPPC   H7X 12451   0.090000   1.008000
12452       HAL2    96  DPPC   H7Y 12452   0.090000   1.008000
12453       CTL2    96  DPPC   C38 12453  -0.180000  12.011000
12454       HAL2    96  DPPC   H8X 12454   0.090000   1.008000
12455       HAL2    96  DPPC   H8Y 12455   0.090000   1.008000
12456       CTL2    96  DPPC   C39 12456  -0.180000  12.011000
12457       HAL2    96  DPPC   H9X 12457   0.090000   1.008000
12458       HAL2    96  DPPC   H9Y 12458   0.090000   1.008000
12459       CTL2    96  DPPC  C310 12459  -0.180000  12.011000
12460       HAL2    96  DPPC  H10X 12460   0.090000   1.008000
12461       HAL2    96  DPPC  H10Y 12461   0.090000   1.008000
12462       CTL2    96  DPPC  C311 12462  -0.180000  12.011000
12463       HAL2    96  DPPC  H11X 12463   0.090000   1.008000
12464       HAL2    96  DPPC  H11Y 12464   0.090000   1.008000
12465       CTL2    96  DPPC  C312 12465  -0.180000  12.011000
12466       HAL2    96  DPPC  H12X 12466   0.090000   1.008000
12467       HAL2    96  DPPC  H12Y 12467   0.090000   1.008000
12468       CTL2    96  DPPC  C313 12468  -0.180000  12.011000
12469       HAL2    96  DPPC  H13X 12469   0.090000   1.008000
12470       HAL2    96  DPPC  H13Y 12470   0.090000   1.008000
12471       CTL2    96  DPPC  C314 12471  -0.180000  12.011000
12472       HAL2    96  DPPC  H14X 12472   0.090000   1.008000
12473       HAL2    96  DPPC  H14Y 12473   0.090000   1.008000
12474       CTL2    96  DPPC  C315 12474  -0.180000  12.011000
12475       HAL2    96  DPPC  H15X 12475   0.090000   1.008000
12476       HAL2    96  DPPC  H15Y 12476   0.090000   1.008000
12477       CTL3    96  DPPC  C316 12477  -0.270000  12.011000
12478       HAL3    96  DPPC  H16X 12478   0.090000   1.008000
12479       HAL3    96  DPPC  H16Y 12479   0.090000   1.008000
12480       HAL3    96  DPPC  H16Z 12480   0.090000   1.008000
12481        NTL    97  DPPC     N 12481  -0.600000  14.007000
12482       CTL5    97  DPPC   C13 12482  -0.350000  12.011000
12483         HL    97  DPPC  H13A 12483   0.250000   1.008000
12484         HL    97  DPPC  H13B 12484   0.250000   1.008000
12485         HL    97  DPPC  H13C 12485   0.250000   1.008000
12486       CTL5    97  DPPC   C14 12486  -0.350000  12.011000
12487         HL    97  DPPC  H14A 12487   0.250000   1.008000
12488         HL    97  DPPC  H14B 12488   0.250000   1.008000
12489         HL    97  DPPC  H14C 12489   0.250000   1.008000
12490       CTL5    97  DPPC   C15 12490  -0.350000  12.011000
12491         HL    97  DPPC  H15A 12491   0.250000   1.008000
12492         HL    97  DPPC  H15B 12492   0.250000   1.008000
12493         HL    97  DPPC  H15C 12493   0.250000   1.008000
12494       CTL2    97  DPPC   C12 12494  -0.100000  12.011000
12495         HL    97  DPPC  H12A 12495   0.250000   1.008000
12496         HL    97  DPPC  H12B 12496   0.250000   1.008000
12497       CTL2    97  DPPC   C11 12497  -0.080000  12.011000
12498       HAL2    97  DPPC  H11A 12498   0.090000   1.008000
12499       HAL2    97  DPPC  H11B 12499   0.090000   1.008000
12500         PL    97  DPPC     P 12500   1.500000  30.974001
12501        O2L    97  DPPC   O13 12501  -0.780000  15.999400
12502        O2L    97  DPPC   O14 12502  -0.780000  15.999400
12503       OSLP    97  DPPC   O11 12503  -0.570000  15.999400
12504       OSLP    97  DPPC   O12 12504  -0.570000  15.999400
12505       CTL2    97  DPPC    C1 12505  -0.080000  12.011000
12506       HAL2    97  DPPC    HA 12506   0.090000   1.008000
12507       HAL2    97  DPPC    HB 12507   0.090000   1.008000
12508       CTL1    97  DPPC    C2 12508   0.170000  12.011000
12509       HAL1    97  DPPC    HS 12509   0.090000   1.008000
12510        OSL    97  DPPC   O21 12510  -0.490000  15.999400
12511         CL    97  DPPC   C21 12511   0.900000  12.011000
12512        OBL    97  DPPC   O22 12512  -0.630000  15.999400
12513       CTL2    97  DPPC   C22 12513  -0.220000  12.011000
12514       HAL2    97  DPPC   H2R 12514   0.090000   1.008000
12515       HAL2    97  DPPC   H2S 12515   0.090000   1.008000
12516       CTL2    97  DPPC    C3 12516   0.080000  12.011000
12517       HAL2    97  DPPC    HX 12517   0.090000   1.008000
12518       HAL2    97  DPPC    HY 12518   0.090000   1.008000
12519        OSL    97  DPPC   O31 12519  -0.490000  15.999400
12520         CL    97  DPPC   C31 12520   0.900000  12.011000
12521        OBL    97  DPPC   O32 12521  -0.630000  15.999400
12522       CTL2    97  DPPC   C32 12522  -0.220000  12.011000
12523       HAL2    97  DPPC   H2X 12523   0.090000   1.008000
12524       HAL2    97  DPPC   H2Y 12524   0.090000   1.008000
12525       CTL2    97  DPPC   C23 12525  -0.180000  12.011000
12526       HAL2    97  DPPC   H3R 12526   0.090000   1.008000
12527       HAL2    97  DPPC   H3S 12527   0.090000   1.008000
12528       CTL2    97  DPPC   C24 12528  -0.180000  12.011000
12529       HAL2    97  DPPC   H4R 12529   0.090000   1.008000
12530       HAL2    97  DPPC   H4S 12530   0.090000   1.008000
12531       CTL2    97  DPPC   C25 12531  -0.180000  12.011000
12532       HAL2    97  DPPC   H5R 12532   0.090000   1.008000
12533       HAL2    97  DPPC   H5S 12533   0.090000   1.008000
12534       CTL2    97  DPPC   C26 12534  -0.180000  12.011000
12535       HAL2    97  DPPC   H6R 12535   0.090000   1.008000
12536       HAL2    97  DPPC   H6S 12536   0.090000   1.008000
12537       CTL2    97  DPPC   C27 12537  -0.180000  12.011000
12538       HAL2    97  DPPC   H7R 12538   0.090000   1.008000
12539       HAL2    97  DPPC   H7S 12539   0.090000   1.008000
12540       CTL2    97  DPPC   C28 12540  -0.180000  12.011000
12541       HAL2    97  DPPC   H8R 12541   0.090000   1.008000
12542       HAL2    97  DPPC   H8S 12542   0.090000   1.008000
12543       CTL2    97  DPPC   C29 12543  -0.180000  12.011000
12544       HAL2    97  DPPC   H9R 12544   0.090000   1.008000
12545       HAL2    97  DPPC   H9S 12545   0.090000   1.008000
12546       CTL2    97  DPPC  C210 12546  -0.180000  12.011000
12547       HAL2    97  DPPC  H10R 12547   0.090000   1.008000
12548       HAL2    97  DPPC  H10S 12548   0.090000   1.008000
12549       CTL2    97  DPPC  C211 12549  -0.180000  12.011000
12550       HAL2    97  DPPC  H11R 12550   0.090000   1.008000
12551       HAL2    97  DPPC  H11S 12551   0.090000   1.008000
12552       CTL2    97  DPPC  C212 12552  -0.180000  12.011000
12553       HAL2    97  DPPC  H12R 12553   0.090000   1.008000
12554       HAL2    97  DPPC  H12S 12554   0.090000   1.008000
12555       CTL2    97  DPPC  C213 12555  -0.180000  12.011000
12556       HAL2    97  DPPC  H13R 12556   0.090000   1.008000
12557       HAL2    97  DPPC  H13S 12557   0.090000   1.008000
12558       CTL2    97  DPPC  C214 12558  -0.180000  12.011000
12559       HAL2    97  DPPC  H14R 12559   0.090000   1.008000
12560       HAL2    97  DPPC  H14S 12560   0.090000   1.008000
12561       CTL2    97  DPPC  C215 12561  -0.180000  12.011000
12562       HAL2    97  DPPC  H15R 12562   0.090000   1.008000
12563       HAL2    97  DPPC  H15S 12563   0.090000   1.008000
12564       CTL3    97  DPPC  C216 12564  -0.270000  12.011000
12565       HAL3    97  DPPC  H16R 12565   0.090000   1.008000
12566       HAL3    97  DPPC  H16S 12566   0.090000   1.008000
12567       HAL3    97  DPPC  H16T 12567   0.090000   1.008000
12568       CTL2    97  DPPC   C33 12568  -0.180000  12.011000
12569       HAL2    97  DPPC   H3X 12569   0.090000   1.008000
12570       HAL2    97  DPPC   H3Y 12570   0.090000   1.008000
12571       CTL2    97  DPPC   C34 12571  -0.180000  12.011000
12572       HAL2    97  DPPC   H4X 12572   0.090000   1.008000
12573       HAL2    97  DPPC   H4Y 12573   0.090000   1.008000
12574       CTL2    97  DPPC   C35 12574  -0.180000  12.011000
12575       HAL2    97  DPPC   H5X 12575   0.090000   1.008000
12576       HAL2    97  DPPC   H5Y 12576   0.090000   1.008000
12577       CTL2    97  DPPC   C36 12577  -0.180000  12.011000
12578       HAL2    97  DPPC   H6X 12578   0.090000   1.008000
12579       HAL2    97  DPPC   H6Y 12579   0.090000   1.008000
12580       CTL2    97  DPPC   C37 12580  -0.180000  12.011000
12581       HAL2    97  DPPC   H7X 12581   0.090000   1.008000
12582       HAL2    97  DPPC   H7Y 12582   0.090000   1.008000
12583       CTL2    97  DPPC   C38 12583  -0.180000  12.011000
12584       HAL2    97  DPPC   H8X 12584   0.090000   1.008000
12585       HAL2    97  DPPC   H8Y 12585   0.090000   1.008000
12586       CTL2    97  DPPC   C39 12586  -0.180000  12.011000
12587       HAL2    97  DPPC   H9X 12587   0.090000   1.008000
12588       HAL2    97  DPPC   H9Y 12588   0.090000   1.008000
12589       CTL2    97  DPPC  C310 12589  -0.180000  12.011000
12590       HAL2    97  DPPC  H10X 12590   0.090000   1.008000
12591       HAL2    97  DPPC  H10Y 12591   0.090000   1.008000
12592       CTL2    97  DPPC  C311 12592  -0.180000  12.011000
12593       HAL2    97  DPPC  H11X 12593   0.090000   1.008000
12594       HAL2    97  DPPC  H11Y 12594   0.090000   1.008000
12595       CTL2    97  DPPC  C312 12595  -0.180000  12.011000
12596       HAL2    97  DPPC  H12X 12596   0.090000   1.008000
12597       HAL2    97  DPPC  H12Y 12597   0.090000   1.008000
12598       CTL2    97  DPPC  C313 12598  -0.180000  12.011000
12599       HAL2    97  DPPC  H13X 12599   0.090000   1.008000
12600       HAL2    97  DPPC  H13Y 12600   0.090000   1.008000
12601       CTL2    97  DPPC  C314 12601  -0.180000  12.011000
12602       HAL2    97  DPPC  H14X 12602   0.090000   1.008000
12603       HAL2    97  DPPC  H14Y 12603   0.090000   1.008000
12604       CTL2    97  DPPC  C315 12604  -0.180000  12.011000
12605       HAL2    97  DPPC  H15X 12605   0.090000   1.008000
12606       HAL2    97  DPPC  H15Y 12606   0.090000   1.008000
12607       CTL3    97  DPPC  C316 12607  -0.270000  12.011000
12608       HAL3    97  DPPC  H16X 12608   0.090000   1.008000
12609       HAL3    97  DPPC  H16Y 12609   0.090000   1.008000
12610       HAL3    97  DPPC  H16Z 12610   0.090000   1.008000
12611        NTL    98  DPPC     N 12611  -0.600000  14.007000
12612       CTL5    98  DPPC   C13 12612  -0.350000  12.011000
12613         HL    98  DPPC  H13A 12613   0.250000   1.008000
12614         HL    98  DPPC  H13B 12614   0.250000   1.008000
12615         HL    98  DPPC  H13C 12615   0.250000   1.008000
12616       CTL5    98  DPPC   C14 12616  -0.350000  12.011000
12617         HL    98  DPPC  H14A 12617   0.250000   1.008000
12618         HL    98  DPPC  H14B 12618   0.250000   1.008000
12619         HL    98  DPPC  H14C 12619   0.250000   1.008000
12620       CTL5    98  DPPC   C15 12620  -0.350000  12.011000
12621         HL    98  DPPC  H15A 12621   0.250000   1.008000
12622         HL    98  DPPC  H15B 12622   0.250000   1.008000
12623         HL    98  DPPC  H15C 12623   0.250000   1.008000
12624       CTL2    98  DPPC   C12 12624  -0.100000  12.011000
12625         HL    98  DPPC  H12A 12625   0.250000   1.008000
12626         HL    98  DPPC  H12B 12626   0.250000   1.008000
12627       CTL2    98  DPPC   C11 12627  -0.080000  12.011000
12628       HAL2    98  DPPC  H11A 12628   0.090000   1.008000
12629       HAL2    98  DPPC  H11B 12629   0.090000   1.008000
12630         PL    98  DPPC     P 12630   1.500000  30.974001
12631        O2L    98  DPPC   O13 12631  -0.780000  15.999400
12632        O2L    98  DPPC   O14 12632  -0.780000  15.999400
12633       OSLP    98  DPPC   O11 12633  -0.570000  15.999400
12634       OSLP    98  DPPC   O12 12634  -0.570000  15.999400
12635       CTL2    98  DPPC    C1 12635  -0.080000  12.011000
12636       HAL2    98  DPPC    HA 12636   0.090000   1.008000
12637       HAL2    98  DPPC    HB 12637   0.090000   1.008000
12638       CTL1    98  DPPC    C2 12638   0.170000  12.011000
12639       HAL1    98  DPPC    HS 12639   0.090000   1.008000
12640        OSL    98  DPPC   O21 12640  -0.490000  15.999400
12641         CL    98  DPPC   C21 12641   0.900000  12.011000
12642        OBL    98  DPPC   O22 12642  -0.630000  15.999400
12643       CTL2    98  DPPC   C22 12643  -0.220000  12.011000
12644       HAL2    98  DPPC   H2R 12644   0.090000   1.008000
12645       HAL2    98  DPPC   H2S 12645   0.090000   1.008000
12646       CTL2    98  DPPC    C3 12646   0.080000  12.011000
12647       HAL2    98  DPPC    HX 12647   0.090000   1.008000
12648       HAL2    98  DPPC    HY 12648   0.090000   1.008000
12649        OSL    98  DPPC   O31 12649  -0.490000  15.999400
12650         CL    98  DPPC   C31 12650   0.900000  12.011000
12651        OBL    98  DPPC   O32 12651  -0.630000  15.999400
12652       CTL2    98  DPPC   C32 12652  -0.220000  12.011000
12653       HAL2    98  DPPC   H2X 12653   0.090000   1.008000
12654       HAL2    98  DPPC   H2Y 12654   0.090000   1.008000
12655       CTL2    98  DPPC   C23 12655  -0.180000  12.011000
12656       HAL2    98  DPPC   H3R 12656   0.090000   1.008000
12657       HAL2    98  DPPC   H3S 12657   0.090000   1.008000
12658       CTL2    98  DPPC   C24 12658  -0.180000  12.011000
12659       HAL2    98  DPPC   H4R 12659   0.090000   1.008000
12660       HAL2    98  DPPC   H4S 12660   0.090000   1.008000
12661       CTL2    98  DPPC   C25 12661  -0.180000  12.011000
12662       HAL2    98  DPPC   H5R 12662   0.090000   1.008000
12663       HAL2    98  DPPC   H5S 12663   0.090000   1.008000
12664       CTL2    98  DPPC   C26 12664  -0.180000  12.011000
12665       HAL2    98  DPPC   H6R 12665   0.090000   1.008000
12666       HAL2    98  DPPC   H6S 12666   0.090000   1.008000
12667       CTL2    98  DPPC   C27 12667  -0.180000  12.011000
12668       HAL2    98  DPPC   H7R 12668   0.090000   1.008000
12669       HAL2    98  DPPC   H7S 12669   0.090000   1.008000
12670       CTL2    98  DPPC   C28 12670  -0.180000  12.011000
12671       HAL2    98  DPPC   H8R 12671   0.090000   1.008000
12672       HAL2    98  DPPC   H8S 12672   0.090000   1.008000
12673       CTL2    98  DPPC   C29 12673  -0.180000  12.011000
12674       HAL2    98  DPPC   H9R 12674   0.090000   1.008000
12675       HAL2    98  DPPC   H9S 12675   0.090000   1.008000
12676       CTL2    98  DPPC  C210 12676  -0.180000  12.011000
12677       HAL2    98  DPPC  H10R 12677   0.090000   1.008000
12678       HAL2    98  DPPC  H10S 12678   0.090000   1.008000
12679       CTL2    98  DPPC  C211 12679  -0.180000  12.011000
12680       HAL2    98  DPPC  H11R 12680   0.090000   1.008000
12681       HAL2    98  DPPC  H11S 12681   0.090000   1.008000
12682       CTL2    98  DPPC  C212 12682  -0.180000  12.011000
12683       HAL2    98  DPPC  H12R 12683   0.090000   1.008000
12684       HAL2    98  DPPC  H12S 12684   0.090000   1.008000
12685       CTL2    98  DPPC  C213 12685  -0.180000  12.011000
12686       HAL2    98  DPPC  H13R 12686   0.090000   1.008000
12687       HAL2    98  DPPC  H13S 12687   0.090000   1.008000
12688       CTL2    98  DPPC  C214 12688  -0.180000  12.011000
12689       HAL2    98  DPPC  H14R 12689   0.090000   1.008000
12690       HAL2    98  DPPC  H14S 12690   0.090000   1.008000
12691       CTL2    98  DPPC  C215 12691  -0.180000  12.011000
12692       HAL2    98  DPPC  H15R 12692   0.090000   1.008000
12693       HAL2    98  DPPC  H15S 12693   0.090000   1.008000
12694       CTL3    98  DPPC  C216 12694  -0.270000  12.011000
12695       HAL3    98  DPPC  H16R 12695   0.090000   1.008000
12696       HAL3    98  DPPC  H16S 12696   0.090000   1.008000
12697       HAL3    98  DPPC  H16T 12697   0.090000   1.008000
12698       CTL2    98  DPPC   C33 12698  -0.180000  12.011000
12699       HAL2    98  DPPC   H3X 12699   0.090000   1.008000
12700       HAL2    98  DPPC   H3Y 12700   0.090000   1.008000
12701       CTL2    98  DPPC   C34 12701  -0.180000  12.011000
12702       HAL2    98  DPPC   H4X 12702   0.090000   1.008000
12703       HAL2    98  DPPC   H4Y 12703   0.090000   1.008000
12704       CTL2    98  DPPC   C35 12704  -0.180000  12.011000
12705       HAL2    98  DPPC   H5X 12705   0.090000   1.008000
12706       HAL2    98  DPPC   H5Y 12706   0.090000   1.008000
12707       CTL2    98  DPPC   C36 12707  -0.180000  12.011000
12708       HAL2    98  DPPC   H6X 12708   0.090000   1.008000
12709       HAL2    98  DPPC   H6Y 12709   0.090000   1.008000
12710       CTL2    98  DPPC   C37 12710  -0.180000  12.011000
12711       HAL2    98  DPPC   H7X 12711   0.090000   1.008000
12712       HAL2    98  DPPC   H7Y 12712   0.090000   1.008000
12713       CTL2    98  DPPC   C38 12713  -0.180000  12.011000
12714       HAL2    98  DPPC   H8X 12714   0.090000   1.008000
12715       HAL2    98  DPPC   H8Y 12715   0.090000   1.008000
12716       CTL2    98  DPPC   C39 12716  -0.180000  12.011000
12717       HAL2    98  DPPC   H9X 12717   0.090000   1.008000
12718       HAL2    98  DPPC   H9Y 12718   0.090000   1.008000
12719       CTL2    98  DPPC  C310 12719  -0.180000  12.011000
12720       HAL2    98  DPPC  H10X 12720   0.090000   1.008000
12721       HAL2    98  DPPC  H10Y 12721   0.090000   1.008000
12722       CTL2    98  DPPC  C311 12722  -0.180000  12.011000
12723       HAL2    98  DPPC  H11X 12723   0.090000   1.008000
12724       HAL2    98  DPPC  H11Y 12724   0.090000   1.008000
12725       CTL2    98  DPPC  C312 12725  -0.180000  12.011000
12726       HAL2    98  DPPC  H12X 12726   0.090000   1.008000
12727       HAL2    98  DPPC  H12Y 12727   0.090000   1.008000
12728       CTL2    98  DPPC  C313 12728  -0.180000  12.011000
12729       HAL2    98  DPPC  H13X 12729   0.090000   1.008000
12730       HAL2    98  DPPC  H13Y 12730   0.090000   1.008000
12731       CTL2    98  DPPC  C314 12731  -0.180000  12.011000
12732       HAL2    98  DPPC  H14X 12732   0.090000   1.008000
12733       HAL2    98  DPPC  H14Y 12733   0.090000   1.008000
12734       CTL2    98  DPPC  C315 12734  -0.180000  12.011000
12735       HAL2    98  DPPC  H15X 12735   0.090000   1.008000
12736       HAL2    98  DPPC  H15Y 12736   0.090000   1.008000
12737       CTL3    98  DPPC  C316 12737  -0.270000  12.011000
12738       HAL3    98  DPPC  H16X 12738   0.090000   1.008000
12739       HAL3    98  DPPC  H16Y 12739   0.090000   1.008000
12740       HAL3    98  DPPC  H16Z 12740   0.090000   1.008000
12741        NTL    99  DPPC     N 12741  -0.600000  14.007000
12742       CTL5    99  DPPC   C13 12742  -0.350000  12.011000
12743         HL    99  DPPC  H13A 12743   0.250000   1.008000
12744         HL    99  DPPC  H13B 12744   0.250000   1.008000
12745         HL    99  DPPC  H13C 12745   0.250000   1.008000
12746       CTL5    99  DPPC   C14 12746  -0.350000  12.011000
12747         HL    99  DPPC  H14A 12747   0.250000   1.008000
12748         HL    99  DPPC  H14B 12748   0.250000   1.008000
12749         HL    99  DPPC  H14C 12749   0.250000   1.008000
12750       CTL5    99  DPPC   C15 12750  -0.350000  12.011000
12751         HL    99  DPPC  H15A 12751   0.250000   1.008000
12752         HL    99  DPPC  H15B 12752   0.250000   1.008000
12753         HL    99  DPPC  H15C 12753   0.250000   1.008000
12754       CTL2    99  DPPC   C12 12754  -0.100000  12.011000
12755         HL    99  DPPC  H12A 12755   0.250000   1.008000
12756         HL    99  DPPC  H12B 12756   0.250000   1.008000
12757       CTL2    99  DPPC   C11 12757  -0.080000  12.011000
12758       HAL2    99  DPPC  H11A 12758   0.090000   1.008000
12759       HAL2    99  DPPC  H11B 12759   0.090000   1.008000
12760         PL    99  DPPC     P 12760   1.500000  30.974001
12761        O2L    99  DPPC   O13 12761  -0.780000  15.999400
12762        O2L    99  DPPC   O14 12762  -0.780000  15.999400
12763       OSLP    99  DPPC   O11 12763  -0.570000  15.999400
12764       OSLP    99  DPPC   O12 12764  -0.570000  15.999400
12765       CTL2    99  DPPC    C1 12765  -0.080000  12.011000
12766       HAL2    99  DPPC    HA 12766   0.090000   1.008000
12767       HAL2    99  DPPC    HB 12767   0.090000   1.008000
12768       CTL1    99  DPPC    C2 12768   0.170000  12.011000
12769       HAL1    99  DPPC    HS 12769   0.090000   1.008000
12770        OSL    99  DPPC   O21 12770  -0.490000  15.999400
12771         CL    99  DPPC   C21 12771   0.900000  12.011000
12772        OBL    99  DPPC   O22 12772  -0.630000  15.999400
12773       CTL2    99  DPPC   C22 12773  -0.220000  12.011000
12774       HAL2    99  DPPC   H2R 12774   0.090000   1.008000
12775       HAL2    99  DPPC   H2S 12775   0.090000   1.008000
12776       CTL2    99  DPPC    C3 12776   0.080000  12.011000
12777       HAL2    99  DPPC    HX 12777   0.090000   1.008000
12778       HAL2    99  DPPC    HY 12778   0.090000   1.008000
12779        OSL    99  DPPC   O31 12779  -0.490000  15.999400
12780         CL    99  DPPC   C31 12780   0.900000  12.011000
12781        OBL    99  DPPC   O32 12781  -0.630000  15.999400
12782       CTL2    99  DPPC   C32 12782  -0.220000  12.011000
12783       HAL2    99  DPPC   H2X 12783   0.090000   1.008000
12784       HAL2    99  DPPC   H2Y 12784   0.090000   1.008000
12785       CTL2    99  DPPC   C23 12785  -0.180000  12.011000
12786       HAL2    99  DPPC   H3R 12786   0.090000   1.008000
12787       HAL2    99  DPPC   H3S 12787   0.090000   1.008000
12788       CTL2    99  DPPC   C24 12788  -0.180000  12.011000
12789       HAL2    99  DPPC   H4R 12789   0.090000   1.008000
12790       HAL2    99  DPPC   H4S 12790   0.090000   1.008000
12791       CTL2    99  DPPC   C25 12791  -0.180000  12.011000
12792       HAL2    99  DPPC   H5R 12792   0.090000   1.008000
12793       HAL2    99  DPPC   H5S 12793   0.090000   1.008000
12794       CTL2    99  DPPC   C26 12794  -0.180000  12.011000
12795       HAL2    99  DPPC   H6R 12795   0.090000   1.008000
12796       HAL2    99  DPPC   H6S 12796   0.090000   1.008000
12797       CTL2    99  DPPC   C27 12797  -0.180000  12.011000
12798       HAL2    99  DPPC   H7R 12798   0.090000   1.008000
12799       HAL2    99  DPPC   H7S 12799   0.090000   1.008000
12800       CTL2    99  DPPC   C28 12800  -0.180000  12.011000
12801       HAL2    99  DPPC   H8R 12801   0.090000   1.008000
12802       HAL2    99  DPPC   H8S 12802   0.090000   1.008000
12803       CTL2    99  DPPC   C29 12803  -0.180000  12.011000
12804       HAL2    99  DPPC   H9R 12804   0.090000   1.008000
12805       HAL2    99  DPPC   H9S 12805   0.090000   1.008000
12806       CTL2    99  DPPC  C210 12806  -0.180000  12.011000
12807       HAL2    99  DPPC  H10R 12807   0.090000   1.008000
12808       HAL2    99  DPPC  H10S 12808   0.090000   1.008000
12809       CTL2    99  DPPC  C211 12809  -0.180000  12.011000
12810       HAL2    99  DPPC  H11R 12810   0.090000   1.008000
12811       HAL2    99  DPPC  H11S 12811   0.090000   1.008000
12812       CTL2    99  DPPC  C212 12812  -0.180000  12.011000
12813       HAL2    99  DPPC  H12R 12813   0.090000   1.008000
12814       HAL2    99  DPPC  H12S 12814   0.090000   1.008000
12815       CTL2    99  DPPC  C213 12815  -0.180000  12.011000
12816       HAL2    99  DPPC  H13R 12816   0.090000   1.008000
12817       HAL2    99  DPPC  H13S 12817   0.090000   1.008000
12818       CTL2    99  DPPC  C214 12818  -0.180000  12.011000
12819       HAL2    99  DPPC  H14R 12819   0.090000   1.008000
12820       HAL2    99  DPPC  H14S 12820   0.090000   1.008000
12821       CTL2    99  DPPC  C215 12821  -0.180000  12.011000
12822       HAL2    99  DPPC  H15R 12822   0.090000   1.008000
12823       HAL2    99  DPPC  H15S 12823   0.090000   1.008000
12824       CTL3    99  DPPC  C216 12824  -0.270000  12.011000
12825       HAL3    99  DPPC  H16R 12825   0.090000   1.008000
12826       HAL3    99  DPPC  H16S 12826   0.090000   1.008000
12827       HAL3    99  DPPC  H16T 12827   0.090000   1.008000
12828       CTL2    99  DPPC   C33 12828  -0.180000  12.011000
12829       HAL2    99  DPPC   H3X 12829   0.090000   1.008000
12830       HAL2    99  DPPC   H3Y 12830   0.090000   1.008000
12831       CTL2    99  DPPC   C34 12831  -0.180000  12.011000
12832       HAL2    99  DPPC   H4X 12832   0.090000   1.008000
12833       HAL2    99  DPPC   H4Y 12833   0.090000   1.008000
12834       CTL2    99  DPPC   C35 12834  -0.180000  12.011000
12835       HAL2    99  DPPC   H5X 12835   0.090000   1.008000
12836       HAL2    99  DPPC   H5Y 12836   0.090000   1.008000
12837       CTL2    99  DPPC   C36 12837  -0.180000  12.011000
12838       HAL2    99  DPPC   H6X 12838   0.090000   1.008000
12839       HAL2    99  DPPC   H6Y 12839   0.090000   1.008000
12840       CTL2    99  DPPC   C37 12840  -0.180000  12.011000
12841       HAL2    99  DPPC   H7X 12841   0.090000   1.008000
12842       HAL2    99  DPPC   H7Y 12842   0.090000   1.008000
12843       CTL2    99  DPPC   C38 12843  -0.180000  12.011000
12844       HAL2    99  DPPC   H8X 12844   0.090000   1.008000
12845       HAL2    99  DPPC   H8Y 12845   0.090000   1.008000
12846       CTL2    99  DPPC   C39 12846  -0.180000  12.011000
12847       HAL2    99  DPPC   H9X 12847   0.090000   1.008000
12848       HAL2    99  DPPC   H9Y 12848   0.090000   1.008000
12849       CTL2    99  DPPC  C310 12849  -0.180000  12.011000
12850       HAL2    99  DPPC  H10X 12850   0.090000   1.008000
12851       HAL2    99  DPPC  H10Y 12851   0.090000   1.008000
12852       CTL2    99  DPPC  C311 12852  -0.180000  12.011000
12853       HAL2    99  DPPC  H11X 12853   0.090000   1.008000
12854       HAL2    99  DPPC  H11Y 12854   0.090000   1.008000
12855       CTL2    99  DPPC  C312 12855  -0.180000  12.011000
12856       HAL2    99  DPPC  H12X 12856   0.090000   1.008000
12857       HAL2    99  DPPC  H12Y 12857   0.090000   1.008000
12858       CTL2    99  DPPC  C313 12858  -0.180000  12.011000
12859       HAL2    99  DPPC  H13X 12859   0.090000   1.008000
12860       HAL2    99  DPPC  H13Y 12860   0.090000   1.008000
12861       CTL2    99  DPPC  C314 12861  -0.180000  12.011000
12862       HAL2    99  DPPC  H14X 12862   0.090000   1.008000
12863       HAL2    99  DPPC  H14Y 12863   0.090000   1.008000
12864       CTL2    99  DPPC  C315 12864  -0.180000  12.011000
12865       HAL2    99  DPPC  H15X 12865   0.090000   1.008000
12866       HAL2    99  DPPC  H15Y 12866   0.090000   1.008000
12867       CTL3    99  DPPC  C316 12867  -0.270000  12.011000
12868       HAL3    99  DPPC  H16X 12868   0.090000   1.008000
12869       HAL3    99  DPPC  H16Y 12869   0.090000   1.008000
12870       HAL3    99  DPPC  H16Z 12870   0.090000   1.008000
12871        NTL   100  DPPC     N 12871  -0.600000  14.007000
12872       CTL5   100  DPPC   C13 12872  -0.350000  12.011000
12873         HL   100  DPPC  H13A 12873   0.250000   1.008000
12874         HL   100  DPPC  H13B 12874   0.250000   1.008000
12875         HL   100  DPPC  H13C 12875   0.250000   1.008000
12876       CTL5   100  DPPC   C14 12876  -0.350000  12.011000
12877         HL   100  DPPC  H14A 12877   0.250000   1.008000
12878         HL   100  DPPC  H14B 12878   0.250000   1.008000
12879         HL   100  DPPC  H14C 12879   0.250000   1.008000
12880       CTL5   100  DPPC   C15 12880  -0.350000  12.011000
12881         HL   100  DPPC  H15A 12881   0.250000   1.008000
12882         HL   100  DPPC  H15B 12882   0.250000   1.008000
12883         HL   100  DPPC  H15C 12883   0.250000   1.008000
12884       CTL2   100  DPPC   C12 12884  -0.100000  12.011000
12885         HL   100  DPPC  H12A 12885   0.250000   1.008000
12886         HL   100  DPPC  H12B 12886   0.250000   1.008000
12887       CTL2   100  DPPC   C11 12887  -0.080000  12.011000
12888       HAL2   100  DPPC  H11A 12888   0.090000   1.008000
12889       HAL2   100  DPPC  H11B 12889   0.090000   1.008000
12890         PL   100  DPPC     P 12890   1.500000  30.974001
12891        O2L   100  DPPC   O13 12891  -0.780000  15.999400
12892        O2L   100  DPPC   O14 12892  -0.780000  15.999400
12893       OSLP   100  DPPC   O11 12893  -0.570000  15.999400
12894       OSLP   100  DPPC   O12 12894  -0.570000  15.999400
12895       CTL2   100  DPPC    C1 12895  -0.080000  12.011000
12896       HAL2   100  DPPC    HA 12896   0.090000   1.008000
12897       HAL2   100  DPPC    HB 12897   0.090000   1.008000
12898       CTL1   100  DPPC    C2 12898   0.170000  12.011000
12899       HAL1   100  DPPC    HS 12899   0.090000   1.008000
12900        OSL   100  DPPC   O21 12900  -0.490000  15.999400
12901         CL   100  DPPC   C21 12901   0.900000  12.011000
12902        OBL   100  DPPC   O22 12902  -0.630000  15.999400
12903       CTL2   100  DPPC   C22 12903  -0.220000  12.011000
12904       HAL2   100  DPPC   H2R 12904   0.090000   1.008000
12905       HAL2   100  DPPC   H2S 12905   0.090000   1.008000
12906       CTL2   100  DPPC    C3 12906   0.080000  12.011000
12907       HAL2   100  DPPC    HX 12907   0.090000   1.008000
12908       HAL2   100  DPPC    HY 12908   0.090000   1.008000
12909        OSL   100  DPPC   O31 12909  -0.490000  15.999400
12910         CL   100  DPPC   C31 12910   0.900000  12.011000
12911        OBL   100  DPPC   O32 12911  -0.630000  15.999400
12912       CTL2   100  DPPC   C32 12912  -0.220000  12.011000
12913       HAL2   100  DPPC   H2X 12913   0.090000   1.008000
12914       HAL2   100  DPPC   H2Y 12914   0.090000   1.008000
12915       CTL2   100  DPPC   C23 12915  -0.180000  12.011000
12916       HAL2   100  DPPC   H3R 12916   0.090000   1.008000
12917       HAL2   100  DPPC   H3S 12917   0.090000   1.008000
12918       CTL2   100  DPPC   C24 12918  -0.180000  12.011000
12919       HAL2   100  DPPC   H4R 12919   0.090000   1.008000
12920       HAL2   100  DPPC   H4S 12920   0.090000   1.008000
12921       CTL2   100  DPPC   C25 12921  -0.180000  12.011000
12922       HAL2   100  DPPC   H5R 12922   0.090000   1.008000
12923       HAL2   100  DPPC   H5S 12923   0.090000   1.008000
12924       CTL2   100  DPPC   C26 12924  -0.180000  12.011000
12925       HAL2   100  DPPC   H6R 12925   0.090000   1.008000
12926       HAL2   100  DPPC   H6S 12926   0.090000   1.008000
12927       CTL2   100  DPPC   C27 12927  -0.180000  12.011000
12928       HAL2   100  DPPC   H7R 12928   0.090000   1.008000
12929       HAL2   100  DPPC   H7S 12929   0.090000   1.008000
12930       CTL2   100  DPPC   C28 12930  -0.180000  12.011000
12931       HAL2   100  DPPC   H8R 12931   0.090000   1.008000
12932       HAL2   100  DPPC   H8S 12932   0.090000   1.008000
12933       CTL2   100  DPPC   C29 12933  -0.180000  12.011000
12934       HAL2   100  DPPC   H9R 12934   0.090000   1.008000
12935       HAL2   100  DPPC   H9S 12935   0.090000   1.008000
12936       CTL2   100  DPPC  C210 12936  -0.180000  12.011000
12937       HAL2   100  DPPC  H10R 12937   0.090000   1.008000
12938       HAL2   100  DPPC  H10S 12938   0.090000   1.008000
12939       CTL2   100  DPPC  C211 12939  -0.180000  12.011000
12940       HAL2   100  DPPC  H11R 12940   0.090000   1.008000
12941       HAL2   100  DPPC  H11S 12941   0.090000   1.008000
12942       CTL2   100  DPPC  C212 12942  -0.180000  12.011000
12943       HAL2   100  DPPC  H12R 12943   0.090000   1.008000
12944       HAL2   100  DPPC  H12S 12944   0.090000   1.008000
12945       CTL2   100  DPPC  C213 12945  -0.180000  12.011000
12946       HAL2   100  DPPC  H13R 12946   0.090000   1.008000
12947       HAL2   100  DPPC  H13S 12947   0.090000   1.008000
12948       CTL2   100  DPPC  C214 12948  -0.180000  12.011000
12949       HAL2   100  DPPC  H14R 12949   0.090000   1.008000
12950       HAL2   100  DPPC  H14S 12950   0.090000   1.008000
12951       CTL2   100  DPPC  C215 12951  -0.180000  12.011000
12952       HAL2   100  DPPC  H15R 12952   0.090000   1.008000
12953       HAL2   100  DPPC  H15S 12953   0.090000   1.008000
12954       CTL3   100  DPPC  C216 12954  -0.270000  12.011000
12955       HAL3   100  DPPC  H16R 12955   0.090000   1.008000
12956       HAL3   100  DPPC  H16S 12956   0.090000   1.008000
12957       HAL3   100  DPPC  H16T 12957   0.090000   1.008000
12958       CTL2   100  DPPC   C33 12958  -0.180000  12.011000
12959       HAL2   100  DPPC   H3X 12959   0.090000   1.008000
12960       HAL2   100  DPPC   H3Y 12960   0.090000   1.008000
12961       CTL2   100  DPPC   C34 12961  -0.180000  12.011000
12962       HAL2   100  DPPC   H4X 12962   0.090000   1.008000
12963       HAL2   100  DPPC   H4Y 12963   0.090000   1.008000
12964       CTL2   100  DPPC   C35 12964  -0.180000  12.011000
12965       HAL2   100  DPPC   H5X 12965   0.090000   1.008000
12966       HAL2   100  DPPC   H5Y 12966   0.090000   1.008000
12967       CTL2   100  DPPC   C36 12967  -0.180000  12.011000
12968       HAL2   100  DPPC   H6X 12968   0.090000   1.008000
12969       HAL2   100  DPPC   H6Y 12969   0.090000   1.008000
12970       CTL2   100  DPPC   C37 12970  -0.180000  12.011000
12971       HAL2   100  DPPC   H7X 12971   0.090000   1.008000
12972       HAL2   100  DPPC   H7Y 12972   0.090000   1.008000
12973       CTL2   100  DPPC   C38 12973  -0.180000  12.011000
12974       HAL2   100  DPPC   H8X 12974   0.090000   1.008000
12975       HAL2   100  DPPC   H8Y 12975   0.090000   1.008000
12976       CTL2   100  DPPC   C39 12976  -0.180000  12.011000
12977       HAL2   100  DPPC   H9X 12977   0.090000   1.008000
12978       HAL2   100  DPPC   H9Y 12978   0.090000   1.008000
12979       CTL2   100  DPPC  C310 12979  -0.180000  12.011000
12980       HAL2   100  DPPC  H10X 12980   0.090000   1.008000
12981       HAL2   100  DPPC  H10Y 12981   0.090000   1.008000
12982       CTL2   100  DPPC  C311 12982  -0.180000  12.011000
12983       HAL2   100  DPPC  H11X 12983   0.090000   1.008000
12984       HAL2   100  DPPC  H11Y 12984   0.090000   1.008000
12985       CTL2   100  DPPC  C312 12985  -0.180000  12.011000
12986       HAL2   100  DPPC  H12X 12986   0.090000   1.008000
12987       HAL2   100  DPPC  H12Y 12987   0.090000   1.008000
12988       CTL2   100  DPPC  C313 12988  -0.180000  12.011000
12989       HAL2   100  DPPC  H13X 12989   0.090000   1.008000
12990       HAL2   100  DPPC  H13Y 12990   0.090000   1.008000
12991       CTL2   100  DPPC  C314 12991  -0.180000  12.011000
12992       HAL2   100  DPPC  H14X 12992   0.090000   1.008000
12993       HAL2   100  DPPC  H14Y 12993   0.090000   1.008000
12994       CTL2   100  DPPC  C315 12994  -0.180000  12.011000
12995       HAL2   100  DPPC  H15X 12995   0.090000   1.008000
12996       HAL2   100  DPPC  H15Y 12996   0.090000   1.008000
12997       CTL3   100  DPPC  C316 12997  -0.270000  12.011000
12998       HAL3   100  DPPC  H16X 12998   0.090000   1.008000
12999       HAL3   100  DPPC  H16Y 12999   0.090000   1.008000
13000       HAL3   100  DPPC  H16Z 13000   0.090000   1.008000
13001        NTL   101  DPPC     N 13001  -0.600000  14.007000
13002       CTL5   101  DPPC   C13 13002  -0.350000  12.011000
13003         HL   101  DPPC  H13A 13003   0.250000   1.008000
13004         HL   101  DPPC  H13B 13004   0.250000   1.008000
13005         HL   101  DPPC  H13C 13005   0.250000   1.008000
13006       CTL5   101  DPPC   C14 13006  -0.350000  12.011000
13007         HL   101  DPPC  H14A 13007   0.250000   1.008000
13008         HL   101  DPPC  H14B 13008   0.250000   1.008000
13009         HL   101  DPPC  H14C 13009   0.250000   1.008000
13010       CTL5   101  DPPC   C15 13010  -0.350000  12.011000
13011         HL   101  DPPC  H15A 13011   0.250000   1.008000
13012         HL   101  DPPC  H15B 13012   0.250000   1.008000
13013         HL   101  DPPC  H15C 13013   0.250000   1.008000
13014       CTL2   101  DPPC   C12 13014  -0.100000  12.011000
13015         HL   101  DPPC  H12A 13015   0.250000   1.008000
13016         HL   101  DPPC  H12B 13016   0.250000   1.008000
13017       CTL2   101  DPPC   C11 13017  -0.080000  12.011000
13018       HAL2   101  DPPC  H11A 13018   0.090000   1.008000
13019       HAL2   101  DPPC  H11B 13019   0.090000   1.008000
13020         PL   101  DPPC     P 13020   1.500000  30.974001
13021        O2L   101  DPPC   O13 13021  -0.780000  15.999400
13022        O2L   101  DPPC   O14 13022  -0.780000  15.999400
13023       OSLP   101  DPPC   O11 13023  -0.570000  15.999400
13024       OSLP   101  DPPC   O12 13024  -0.570000  15.999400
13025       CTL2   101  DPPC    C1 13025  -0.080000  12.011000
13026       HAL2   101  DPPC    HA 13026   0.090000   1.008000
13027       HAL2   101  DPPC    HB 13027   0.090000   1.008000
13028       CTL1   101  DPPC    C2 13028   0.170000  12.011000
13029       HAL1   101  DPPC    HS 13029   0.090000   1.008000
13030        OSL   101  DPPC   O21 13030  -0.490000  15.999400
13031         CL   101  DPPC   C21 13031   0.900000  12.011000
13032        OBL   101  DPPC   O22 13032  -0.630000  15.999400
13033       CTL2   101  DPPC   C22 13033  -0.220000  12.011000
13034       HAL2   101  DPPC   H2R 13034   0.090000   1.008000
13035       HAL2   101  DPPC   H2S 13035   0.090000   1.008000
13036       CTL2   101  DPPC    C3 13036   0.080000  12.011000
13037       HAL2   101  DPPC    HX 13037   0.090000   1.008000
13038       HAL2   101  DPPC    HY 13038   0.090000   1.008000
13039        OSL   101  DPPC   O31 13039  -0.490000  15.999400
13040         CL   101  DPPC   C31 13040   0.900000  12.011000
13041        OBL   101  DPPC   O32 13041  -0.630000  15.999400
13042       CTL2   101  DPPC   C32 13042  -0.220000  12.011000
13043       HAL2   101  DPPC   H2X 13043   0.090000   1.008000
13044       HAL2   101  DPPC   H2Y 13044   0.090000   1.008000
13045       CTL2   101  DPPC   C23 13045  -0.180000  12.011000
13046       HAL2   101  DPPC   H3R 13046   0.090000   1.008000
13047       HAL2   101  DPPC   H3S 13047   0.090000   1.008000
13048       CTL2   101  DPPC   C24 13048  -0.180000  12.011000
13049       HAL2   101  DPPC   H4R 13049   0.090000   1.008000
13050       HAL2   101  DPPC   H4S 13050   0.090000   1.008000
13051       CTL2   101  DPPC   C25 13051  -0.180000  12.011000
13052       HAL2   101  DPPC   H5R 13052   0.090000   1.008000
13053       HAL2   101  DPPC   H5S 13053   0.090000   1.008000
13054       CTL2   101  DPPC   C26 13054  -0.180000  12.011000
13055       HAL2   101  DPPC   H6R 13055   0.090000   1.008000
13056       HAL2   101  DPPC   H6S 13056   0.090000   1.008000
13057       CTL2   101  DPPC   C27 13057  -0.180000  12.011000
13058       HAL2   101  DPPC   H7R 13058   0.090000   1.008000
13059       HAL2   101  DPPC   H7S 13059   0.090000   1.008000
13060       CTL2   101  DPPC   C28 13060  -0.180000  12.011000
13061       HAL2   101  DPPC   H8R 13061   0.090000   1.008000
13062       HAL2   101  DPPC   H8S 13062   0.090000   1.008000
13063       CTL2   101  DPPC   C29 13063  -0.180000  12.011000
13064       HAL2   101  DPPC   H9R 13064   0.090000   1.008000
13065       HAL2   101  DPPC   H9S 13065   0.090000   1.008000
13066       CTL2   101  DPPC  C210 13066  -0.180000  12.011000
13067       HAL2   101  DPPC  H10R 13067   0.090000   1.008000
13068       HAL2   101  DPPC  H10S 13068   0.090000   1.008000
13069       CTL2   101  DPPC  C211 13069  -0.180000  12.011000
13070       HAL2   101  DPPC  H11R 13070   0.090000   1.008000
13071       HAL2   101  DPPC  H11S 13071   0.090000   1.008000
13072       CTL2   101  DPPC  C212 13072  -0.180000  12.011000
13073       HAL2   101  DPPC  H12R 13073   0.090000   1.008000
13074       HAL2   101  DPPC  H12S 13074   0.090000   1.008000
13075       CTL2   101  DPPC  C213 13075  -0.180000  12.011000
13076       HAL2   101  DPPC  H13R 13076   0.090000   1.008000
13077       HAL2   101  DPPC  H13S 13077   0.090000   1.008000
13078       CTL2   101  DPPC  C214 13078  -0.180000  12.011000
13079       HAL2   101  DPPC  H14R 13079   0.090000   1.008000
13080       HAL2   101  DPPC  H14S 13080   0.090000   1.008000
13081       CTL2   101  DPPC  C215 13081  -0.180000  12.011000
13082       HAL2   101  DPPC  H15R 13082   0.090000   1.008000
13083       HAL2   101  DPPC  H15S 13083   0.090000   1.008000
13084       CTL3   101  DPPC  C216 13084  -0.270000  12.011000
13085       HAL3   101  DPPC  H16R 13085   0.090000   1.008000
13086       HAL3   101  DPPC  H16S 13086   0.090000   1.008000
13087       HAL3   101  DPPC  H16T 13087   0.090000   1.008000
13088       CTL2   101  DPPC   C33 13088  -0.180000  12.011000
13089       HAL2   101  DPPC   H3X 13089   0.090000   1.008000
13090       HAL2   101  DPPC   H3Y 13090   0.090000   1.008000
13091       CTL2   101  DPPC   C34 13091  -0.180000  12.011000
13092       HAL2   101  DPPC   H4X 13092   0.090000   1.008000
13093       HAL2   101  DPPC   H4Y 13093   0.090000   1.008000
13094       CTL2   101  DPPC   C35 13094  -0.180000  12.011000
13095       HAL2   101  DPPC   H5X 13095   0.090000   1.008000
13096       HAL2   101  DPPC   H5Y 13096   0.090000   1.008000
13097       CTL2   101  DPPC   C36 13097  -0.180000  12.011000
13098       HAL2   101  DPPC   H6X 13098   0.090000   1.008000
13099       HAL2   101  DPPC   H6Y 13099   0.090000   1.008000
13100       CTL2   101  DPPC   C37 13100  -0.180000  12.011000
13101       HAL2   101  DPPC   H7X 13101   0.090000   1.008000
13102       HAL2   101  DPPC   H7Y 13102   0.090000   1.008000
13103       CTL2   101  DPPC   C38 13103  -0.180000  12.011000
13104       HAL2   101  DPPC   H8X 13104   0.090000   1.008000
13105       HAL2   101  DPPC   H8Y 13105   0.090000   1.008000
13106       CTL2   101  DPPC   C39 13106  -0.180000  12.011000
13107       HAL2   101  DPPC   H9X 13107   0.090000   1.008000
13108       HAL2   101  DPPC   H9Y 13108   0.090000   1.008000
13109       CTL2   101  DPPC  C310 13109  -0.180000  12.011000
13110       HAL2   101  DPPC  H10X 13110   0.090000   1.008000
13111       HAL2   101  DPPC  H10Y 13111   0.090000   1.008000
13112       CTL2   101  DPPC  C311 13112  -0.180000  12.011000
13113       HAL2   101  DPPC  H11X 13113   0.090000   1.008000
13114       HAL2   101  DPPC  H11Y 13114   0.090000   1.008000
13115       CTL2   101  DPPC  C312 13115  -0.180000  12.011000
13116       HAL2   101  DPPC  H12X 13116   0.090000   1.008000
13117       HAL2   101  DPPC  H12Y 13117   0.090000   1.008000
13118       CTL2   101  DPPC  C313 13118  -0.180000  12.011000
13119       HAL2   101  DPPC  H13X 13119   0.090000   1.008000
13120       HAL2   101  DPPC  H13Y 13120   0.090000   1.008000
13121       CTL2   101  DPPC  C314 13121  -0.180000  12.011000
13122       HAL2   101  DPPC  H14X 13122   0.090000   1.008000
13123       HAL2   101  DPPC  H14Y 13123   0.090000   1.008000
13124       CTL2   101  DPPC  C315 13124  -0.180000  12.011000
13125       HAL2   101  DPPC  H15X 13125   0.090000   1.008000
13126       HAL2   101  DPPC  H15Y 13126   0.090000   1.008000
13127       CTL3   101  DPPC  C316 13127  -0.270000  12.011000
13128       HAL3   101  DPPC  H16X 13128   0.090000   1.008000
13129       HAL3   101  DPPC  H16Y 13129   0.090000   1.008000
13130       HAL3   101  DPPC  H16Z 13130   0.090000   1.008000
13131        NTL   102  DPPC     N 13131  -0.600000  14.007000
13132       CTL5   102  DPPC   C13 13132  -0.350000  12.011000
13133         HL   102  DPPC  H13A 13133   0.250000   1.008000
13134         HL   102  DPPC  H13B 13134   0.250000   1.008000
13135         HL   102  DPPC  H13C 13135   0.250000   1.008000
13136       CTL5   102  DPPC   C14 13136  -0.350000  12.011000
13137         HL   102  DPPC  H14A 13137   0.250000   1.008000
13138         HL   102  DPPC  H14B 13138   0.250000   1.008000
13139         HL   102  DPPC  H14C 13139   0.250000   1.008000
13140       CTL5   102  DPPC   C15 13140  -0.350000  12.011000
13141         HL   102  DPPC  H15A 13141   0.250000   1.008000
13142         HL   102  DPPC  H15B 13142   0.250000   1.008000
13143         HL   102  DPPC  H15C 13143   0.250000   1.008000
13144       CTL2   102  DPPC   C12 13144  -0.100000  12.011000
13145         HL   102  DPPC  H12A 13145   0.250000   1.008000
13146         HL   102  DPPC  H12B 13146   0.250000   1.008000
13147       CTL2   102  DPPC   C11 13147  -0.080000  12.011000
13148       HAL2   102  DPPC  H11A 13148   0.090000   1.008000
13149       HAL2   102  DPPC  H11B 13149   0.090000   1.008000
13150         PL   102  DPPC     P 13150   1.500000  30.974001
13151        O2L   102  DPPC   O13 13151  -0.780000  15.999400
13152        O2L   102  DPPC   O14 13152  -0.780000  15.999400
13153       OSLP   102  DPPC   O11 13153  -0.570000  15.999400
13154       OSLP   102  DPPC   O12 13154  -0.570000  15.999400
13155       CTL2   102  DPPC    C1 13155  -0.080000  12.011000
13156       HAL2   102  DPPC    HA 13156   0.090000   1.008000
13157       HAL2   102  DPPC    HB 13157   0.090000   1.008000
13158       CTL1   102  DPPC    C2 13158   0.170000  12.011000
13159       HAL1   102  DPPC    HS 13159   0.090000   1.008000
13160        OSL   102  DPPC   O21 13160  -0.490000  15.999400
13161         CL   102  DPPC   C21 13161   0.900000  12.011000
13162        OBL   102  DPPC   O22 13162  -0.630000  15.999400
13163       CTL2   102  DPPC   C22 13163  -0.220000  12.011000
13164       HAL2   102  DPPC   H2R 13164   0.090000   1.008000
13165       HAL2   102  DPPC   H2S 13165   0.090000   1.008000
13166       CTL2   102  DPPC    C3 13166   0.080000  12.011000
13167       HAL2   102  DPPC    HX 13167   0.090000   1.008000
13168       HAL2   102  DPPC    HY 13168   0.090000   1.008000
13169        OSL   102  DPPC   O31 13169  -0.490000  15.999400
13170         CL   102  DPPC   C31 13170   0.900000  12.011000
13171        OBL   102  DPPC   O32 13171  -0.630000  15.999400
13172       CTL2   102  DPPC   C32 13172  -0.220000  12.011000
13173       HAL2   102  DPPC   H2X 13173   0.090000   1.008000
13174       HAL2   102  DPPC   H2Y 13174   0.090000   1.008000
13175       CTL2   102  DPPC   C23 13175  -0.180000  12.011000
13176       HAL2   102  DPPC   H3R 13176   0.090000   1.008000
13177       HAL2   102  DPPC   H3S 13177   0.090000   1.008000
13178       CTL2   102  DPPC   C24 13178  -0.180000  12.011000
13179       HAL2   102  DPPC   H4R 13179   0.090000   1.008000
13180       HAL2   102  DPPC   H4S 13180   0.090000   1.008000
13181       CTL2   102  DPPC   C25 13181  -0.180000  12.011000
13182       HAL2   102  DPPC   H5R 13182   0.090000   1.008000
13183       HAL2   102  DPPC   H5S 13183   0.090000   1.008000
13184       CTL2   102  DPPC   C26 13184  -0.180000  12.011000
13185       HAL2   102  DPPC   H6R 13185   0.090000   1.008000
13186       HAL2   102  DPPC   H6S 13186   0.090000   1.008000
13187       CTL2   102  DPPC   C27 13187  -0.180000  12.011000
13188       HAL2   102  DPPC   H7R 13188   0.090000   1.008000
13189       HAL2   102  DPPC   H7S 13189   0.090000   1.008000
13190       CTL2   102  DPPC   C28 13190  -0.180000  12.011000
13191       HAL2   102  DPPC   H8R 13191   0.090000   1.008000
13192       HAL2   102  DPPC   H8S 13192   0.090000   1.008000
13193       CTL2   102  DPPC   C29 13193  -0.180000  12.011000
13194       HAL2   102  DPPC   H9R 13194   0.090000   1.008000
13195       HAL2   102  DPPC   H9S 13195   0.090000   1.008000
13196       CTL2   102  DPPC  C210 13196  -0.180000  12.011000
13197       HAL2   102  DPPC  H10R 13197   0.090000   1.008000
13198       HAL2   102  DPPC  H10S 13198   0.090000   1.008000
13199       CTL2   102  DPPC  C211 13199  -0.180000  12.011000
13200       HAL2   102  DPPC  H11R 13200   0.090000   1.008000
13201       HAL2   102  DPPC  H11S 13201   0.090000   1.008000
13202       CTL2   102  DPPC  C212 13202  -0.180000  12.011000
13203       HAL2   102  DPPC  H12R 13203   0.090000   1.008000
13204       HAL2   102  DPPC  H12S 13204   0.090000   1.008000
13205       CTL2   102  DPPC  C213 13205  -0.180000  12.011000
13206       HAL2   102  DPPC  H13R 13206   0.090000   1.008000
13207       HAL2   102  DPPC  H13S 13207   0.090000   1.008000
13208       CTL2   102  DPPC  C214 13208  -0.180000  12.011000
13209       HAL2   102  DPPC  H14R 13209   0.090000   1.008000
13210       HAL2   102  DPPC  H14S 13210   0.090000   1.008000
13211       CTL2   102  DPPC  C215 13211  -0.180000  12.011000
13212       HAL2   102  DPPC  H15R 13212   0.090000   1.008000
13213       HAL2   102  DPPC  H15S 13213   0.090000   1.008000
13214       CTL3   102  DPPC  C216 13214  -0.270000  12.011000
13215       HAL3   102  DPPC  H16R 13215   0.090000   1.008000
13216       HAL3   102  DPPC  H16S 13216   0.090000   1.008000
13217       HAL3   102  DPPC  H16T 13217   0.090000   1.008000
13218       CTL2   102  DPPC   C33 13218  -0.180000  12.011000
13219       HAL2   102  DPPC   H3X 13219   0.090000   1.008000
13220       HAL2   102  DPPC   H3Y 13220   0.090000   1.008000
13221       CTL2   102  DPPC   C34 13221  -0.180000  12.011000
13222       HAL2   102  DPPC   H4X 13222   0.090000   1.008000
13223       HAL2   102  DPPC   H4Y 13223   0.090000   1.008000
13224       CTL2   102  DPPC   C35 13224  -0.180000  12.011000
13225       HAL2   102  DPPC   H5X 13225   0.090000   1.008000
13226       HAL2   102  DPPC   H5Y 13226   0.090000   1.008000
13227       CTL2   102  DPPC   C36 13227  -0.180000  12.011000
13228       HAL2   102  DPPC   H6X 13228   0.090000   1.008000
13229       HAL2   102  DPPC   H6Y 13229   0.090000   1.008000
13230       CTL2   102  DPPC   C37 13230  -0.180000  12.011000
13231       HAL2   102  DPPC   H7X 13231   0.090000   1.008000
13232       HAL2   102  DPPC   H7Y 13232   0.090000   1.008000
13233       CTL2   102  DPPC   C38 13233  -0.180000  12.011000
13234       HAL2   102  DPPC   H8X 13234   0.090000   1.008000
13235       HAL2   102  DPPC   H8Y 13235   0.090000   1.008000
13236       CTL2   102  DPPC   C39 13236  -0.180000  12.011000
13237       HAL2   102  DPPC   H9X 13237   0.090000   1.008000
13238       HAL2   102  DPPC   H9Y 13238   0.090000   1.008000
13239       CTL2   102  DPPC  C310 13239  -0.180000  12.011000
13240       HAL2   102  DPPC  H10X 13240   0.090000   1.008000
13241       HAL2   102  DPPC  H10Y 13241   0.090000   1.008000
13242       CTL2   102  DPPC  C311 13242  -0.180000  12.011000
13243       HAL2   102  DPPC  H11X 13243   0.090000   1.008000
13244       HAL2   102  DPPC  H11Y 13244   0.090000   1.008000
13245       CTL2   102  DPPC  C312 13245  -0.180000  12.011000
13246       HAL2   102  DPPC  H12X 13246   0.090000   1.008000
13247       HAL2   102  DPPC  H12Y 13247   0.090000   1.008000
13248       CTL2   102  DPPC  C313 13248  -0.180000  12.011000
13249       HAL2   102  DPPC  H13X 13249   0.090000   1.008000
13250       HAL2   102  DPPC  H13Y 13250   0.090000   1.008000
13251       CTL2   102  DPPC  C314 13251  -0.180000  12.011000
13252       HAL2   102  DPPC  H14X 13252   0.090000   1.008000
13253       HAL2   102  DPPC  H14Y 13253   0.090000   1.008000
13254       CTL2   102  DPPC  C315 13254  -0.180000  12.011000
13255       HAL2   102  DPPC  H15X 13255   0.090000   1.008000
13256       HAL2   102  DPPC  H15Y 13256   0.090000   1.008000
13257       CTL3   102  DPPC  C316 13257  -0.270000  12.011000
13258       HAL3   102  DPPC  H16X 13258   0.090000   1.008000
13259       HAL3   102  DPPC  H16Y 13259   0.090000   1.008000
13260       HAL3   102  DPPC  H16Z 13260   0.090000   1.008000
13261        NTL   103  DPPC     N 13261  -0.600000  14.007000
13262       CTL5   103  DPPC   C13 13262  -0.350000  12.011000
13263         HL   103  DPPC  H13A 13263   0.250000   1.008000
13264         HL   103  DPPC  H13B 13264   0.250000   1.008000
13265         HL   103  DPPC  H13C 13265   0.250000   1.008000
13266       CTL5   103  DPPC   C14 13266  -0.350000  12.011000
13267         HL   103  DPPC  H14A 13267   0.250000   1.008000
13268         HL   103  DPPC  H14B 13268   0.250000   1.008000
13269         HL   103  DPPC  H14C 13269   0.250000   1.008000
13270       CTL5   103  DPPC   C15 13270  -0.350000  12.011000
13271         HL   103  DPPC  H15A 13271   0.250000   1.008000
13272         HL   103  DPPC  H15B 13272   0.250000   1.008000
13273         HL   103  DPPC  H15C 13273   0.250000   1.008000
13274       CTL2   103  DPPC   C12 13274  -0.100000  12.011000
13275         HL   103  DPPC  H12A 13275   0.250000   1.008000
13276         HL   103  DPPC  H12B 13276   0.250000   1.008000
13277       CTL2   103  DPPC   C11 13277  -0.080000  12.011000
13278       HAL2   103  DPPC  H11A 13278   0.090000   1.008000
13279       HAL2   103  DPPC  H11B 13279   0.090000   1.008000
13280         PL   103  DPPC     P 13280   1.500000  30.974001
13281        O2L   103  DPPC   O13 13281  -0.780000  15.999400
13282        O2L   103  DPPC   O14 13282  -0.780000  15.999400
13283       OSLP   103  DPPC   O11 13283  -0.570000  15.999400
13284       OSLP   103  DPPC   O12 13284  -0.570000  15.999400
13285       CTL2   103  DPPC    C1 13285  -0.080000  12.011000
13286       HAL2   103  DPPC    HA 13286   0.090000   1.008000
13287       HAL2   103  DPPC    HB 13287   0.090000   1.008000
13288       CTL1   103  DPPC    C2 13288   0.170000  12.011000
13289       HAL1   103  DPPC    HS 13289   0.090000   1.008000
13290        OSL   103  DPPC   O21 13290  -0.490000  15.999400
13291         CL   103  DPPC   C21 13291   0.900000  12.011000
13292        OBL   103  DPPC   O22 13292  -0.630000  15.999400
13293       CTL2   103  DPPC   C22 13293  -0.220000  12.011000
13294       HAL2   103  DPPC   H2R 13294   0.090000   1.008000
13295       HAL2   103  DPPC   H2S 13295   0.090000   1.008000
13296       CTL2   103  DPPC    C3 13296   0.080000  12.011000
13297       HAL2   103  DPPC    HX 13297   0.090000   1.008000
13298       HAL2   103  DPPC    HY 13298   0.090000   1.008000
13299        OSL   103  DPPC   O31 13299  -0.490000  15.999400
13300         CL   103  DPPC   C31 13300   0.900000  12.011000
13301        OBL   103  DPPC   O32 13301  -0.630000  15.999400
13302       CTL2   103  DPPC   C32 13302  -0.220000  12.011000
13303       HAL2   103  DPPC   H2X 13303   0.090000   1.008000
13304       HAL2   103  DPPC   H2Y 13304   0.090000   1.008000
13305       CTL2   103  DPPC   C23 13305  -0.180000  12.011000
13306       HAL2   103  DPPC   H3R 13306   0.090000   1.008000
13307       HAL2   103  DPPC   H3S 13307   0.090000   1.008000
13308       CTL2   103  DPPC   C24 13308  -0.180000  12.011000
13309       HAL2   103  DPPC   H4R 13309   0.090000   1.008000
13310       HAL2   103  DPPC   H4S 13310   0.090000   1.008000
13311       CTL2   103  DPPC   C25 13311  -0.180000  12.011000
13312       HAL2   103  DPPC   H5R 13312   0.090000   1.008000
13313       HAL2   103  DPPC   H5S 13313   0.090000   1.008000
13314       CTL2   103  DPPC   C26 13314  -0.180000  12.011000
13315       HAL2   103  DPPC   H6R 13315   0.090000   1.008000
13316       HAL2   103  DPPC   H6S 13316   0.090000   1.008000
13317       CTL2   103  DPPC   C27 13317  -0.180000  12.011000
13318       HAL2   103  DPPC   H7R 13318   0.090000   1.008000
13319       HAL2   103  DPPC   H7S 13319   0.090000   1.008000
13320       CTL2   103  DPPC   C28 13320  -0.180000  12.011000
13321       HAL2   103  DPPC   H8R 13321   0.090000   1.008000
13322       HAL2   103  DPPC   H8S 13322   0.090000   1.008000
13323       CTL2   103  DPPC   C29 13323  -0.180000  12.011000
13324       HAL2   103  DPPC   H9R 13324   0.090000   1.008000
13325       HAL2   103  DPPC   H9S 13325   0.090000   1.008000
13326       CTL2   103  DPPC  C210 13326  -0.180000  12.011000
13327       HAL2   103  DPPC  H10R 13327   0.090000   1.008000
13328       HAL2   103  DPPC  H10S 13328   0.090000   1.008000
13329       CTL2   103  DPPC  C211 13329  -0.180000  12.011000
13330       HAL2   103  DPPC  H11R 13330   0.090000   1.008000
13331       HAL2   103  DPPC  H11S 13331   0.090000   1.008000
13332       CTL2   103  DPPC  C212 13332  -0.180000  12.011000
13333       HAL2   103  DPPC  H12R 13333   0.090000   1.008000
13334       HAL2   103  DPPC  H12S 13334   0.090000   1.008000
13335       CTL2   103  DPPC  C213 13335  -0.180000  12.011000
13336       HAL2   103  DPPC  H13R 13336   0.090000   1.008000
13337       HAL2   103  DPPC  H13S 13337   0.090000   1.008000
13338       CTL2   103  DPPC  C214 13338  -0.180000  12.011000
13339       HAL2   103  DPPC  H14R 13339   0.090000   1.008000
13340       HAL2   103  DPPC  H14S 13340   0.090000   1.008000
13341       CTL2   103  DPPC  C215 13341  -0.180000  12.011000
13342       HAL2   103  DPPC  H15R 13342   0.090000   1.008000
13343       HAL2   103  DPPC  H15S 13343   0.090000   1.008000
13344       CTL3   103  DPPC  C216 13344  -0.270000  12.011000
13345       HAL3   103  DPPC  H16R 13345   0.090000   1.008000
13346       HAL3   103  DPPC  H16S 13346   0.090000   1.008000
13347       HAL3   103  DPPC  H16T 13347   0.090000   1.008000
13348       CTL2   103  DPPC   C33 13348  -0.180000  12.011000
13349       HAL2   103  DPPC   H3X 13349   0.090000   1.008000
13350       HAL2   103  DPPC   H3Y 13350   0.090000   1.008000
13351       CTL2   103  DPPC   C34 13351  -0.180000  12.011000
13352       HAL2   103  DPPC   H4X 13352   0.090000   1.008000
13353       HAL2   103  DPPC   H4Y 13353   0.090000   1.008000
13354       CTL2   103  DPPC   C35 13354  -0.180000  12.011000
13355       HAL2   103  DPPC   H5X 13355   0.090000   1.008000
13356       HAL2   103  DPPC   H5Y 13356   0.090000   1.008000
13357       CTL2   103  DPPC   C36 13357  -0.180000  12.011000
13358       HAL2   103  DPPC   H6X 13358   0.090000   1.008000
13359       HAL2   103  DPPC   H6Y 13359   0.090000   1.008000
13360       CTL2   103  DPPC   C37 13360  -0.180000  12.011000
13361       HAL2   103  DPPC   H7X 13361   0.090000   1.008000
13362       HAL2   103  DPPC   H7Y 13362   0.090000   1.008000
13363       CTL2   103  DPPC   C38 13363  -0.180000  12.011000
13364       HAL2   103  DPPC   H8X 13364   0.090000   1.008000
13365       HAL2   103  DPPC   H8Y 13365   0.090000   1.008000
13366       CTL2   103  DPPC   C39 13366  -0.180000  12.011000
13367       HAL2   103  DPPC   H9X 13367   0.090000   1.008000
13368       HAL2   103  DPPC   H9Y 13368   0.090000   1.008000
13369       CTL2   103  DPPC  C310 13369  -0.180000  12.011000
13370       HAL2   103  DPPC  H10X 13370   0.090000   1.008000
13371       HAL2   103  DPPC  H10Y 13371   0.090000   1.008000
13372       CTL2   103  DPPC  C311 13372  -0.180000  12.011000
13373       HAL2   103  DPPC  H11X 13373   0.090000   1.008000
13374       HAL2   103  DPPC  H11Y 13374   0.090000   1.008000
13375       CTL2   103  DPPC  C312 13375  -0.180000  12.011000
13376       HAL2   103  DPPC  H12X 13376   0.090000   1.008000
13377       HAL2   103  DPPC  H12Y 13377   0.090000   1.008000
13378       CTL2   103  DPPC  C313 13378  -0.180000  12.011000
13379       HAL2   103  DPPC  H13X 13379   0.090000   1.008000
13380       HAL2   103  DPPC  H13Y 13380   0.090000   1.008000
13381       CTL2   103  DPPC  C314 13381  -0.180000  12.011000
13382       HAL2   103  DPPC  H14X 13382   0.090000   1.008000
13383       HAL2   103  DPPC  H14Y 13383   0.090000   1.008000
13384       CTL2   103  DPPC  C315 13384  -0.180000  12.011000
13385       HAL2   103  DPPC  H15X 13385   0.090000   1.008000
13386       HAL2   103  DPPC  H15Y 13386   0.090000   1.008000
13387       CTL3   103  DPPC  C316 13387  -0.270000  12.011000
13388       HAL3   103  DPPC  H16X 13388   0.090000   1.008000
13389       HAL3   103  DPPC  H16Y 13389   0.090000   1.008000
13390       HAL3   103  DPPC  H16Z 13390   0.090000   1.008000
13391        NTL   104  DPPC     N 13391  -0.600000  14.007000
13392       CTL5   104  DPPC   C13 13392  -0.350000  12.011000
13393         HL   104  DPPC  H13A 13393   0.250000   1.008000
13394         HL   104  DPPC  H13B 13394   0.250000   1.008000
13395         HL   104  DPPC  H13C 13395   0.250000   1.008000
13396       CTL5   104  DPPC   C14 13396  -0.350000  12.011000
13397         HL   104  DPPC  H14A 13397   0.250000   1.008000
13398         HL   104  DPPC  H14B 13398   0.250000   1.008000
13399         HL   104  DPPC  H14C 13399   0.250000   1.008000
13400       CTL5   104  DPPC   C15 13400  -0.350000  12.011000
13401         HL   104  DPPC  H15A 13401   0.250000   1.008000
13402         HL   104  DPPC  H15B 13402   0.250000   1.008000
13403         HL   104  DPPC  H15C 13403   0.250000   1.008000
13404       CTL2   104  DPPC   C12 13404  -0.100000  12.011000
13405         HL   104  DPPC  H12A 13405   0.250000   1.008000
13406         HL   104  DPPC  H12B 13406   0.250000   1.008000
13407       CTL2   104  DPPC   C11 13407  -0.080000  12.011000
13408       HAL2   104  DPPC  H11A 13408   0.090000   1.008000
13409       HAL2   104  DPPC  H11B 13409   0.090000   1.008000
13410         PL   104  DPPC     P 13410   1.500000  30.974001
13411        O2L   104  DPPC   O13 13411  -0.780000  15.999400
13412        O2L   104  DPPC   O14 13412  -0.780000  15.999400
13413       OSLP   104  DPPC   O11 13413  -0.570000  15.999400
13414       OSLP   104  DPPC   O12 13414  -0.570000  15.999400
13415       CTL2   104  DPPC    C1 13415  -0.080000  12.011000
13416       HAL2   104  DPPC    HA 13416   0.090000   1.008000
13417       HAL2   104  DPPC    HB 13417   0.090000   1.008000
13418       CTL1   104  DPPC    C2 13418   0.170000  12.011000
13419       HAL1   104  DPPC    HS 13419   0.090000   1.008000
13420        OSL   104  DPPC   O21 13420  -0.490000  15.999400
13421         CL   104  DPPC   C21 13421   0.900000  12.011000
13422        OBL   104  DPPC   O22 13422  -0.630000  15.999400
13423       CTL2   104  DPPC   C22 13423  -0.220000  12.011000
13424       HAL2   104  DPPC   H2R 13424   0.090000   1.008000
13425       HAL2   104  DPPC   H2S 13425   0.090000   1.008000
13426       CTL2   104  DPPC    C3 13426   0.080000  12.011000
13427       HAL2   104  DPPC    HX 13427   0.090000   1.008000
13428       HAL2   104  DPPC    HY 13428   0.090000   1.008000
13429        OSL   104  DPPC   O31 13429  -0.490000  15.999400
13430         CL   104  DPPC   C31 13430   0.900000  12.011000
13431        OBL   104  DPPC   O32 13431  -0.630000  15.999400
13432       CTL2   104  DPPC   C32 13432  -0.220000  12.011000
13433       HAL2   104  DPPC   H2X 13433   0.090000   1.008000
13434       HAL2   104  DPPC   H2Y 13434   0.090000   1.008000
13435       CTL2   104  DPPC   C23 13435  -0.180000  12.011000
13436       HAL2   104  DPPC   H3R 13436   0.090000   1.008000
13437       HAL2   104  DPPC   H3S 13437   0.090000   1.008000
13438       CTL2   104  DPPC   C24 13438  -0.180000  12.011000
13439       HAL2   104  DPPC   H4R 13439   0.090000   1.008000
13440       HAL2   104  DPPC   H4S 13440   0.090000   1.008000
13441       CTL2   104  DPPC   C25 13441  -0.180000  12.011000
13442       HAL2   104  DPPC   H5R 13442   0.090000   1.008000
13443       HAL2   104  DPPC   H5S 13443   0.090000   1.008000
13444       CTL2   104  DPPC   C26 13444  -0.180000  12.011000
13445       HAL2   104  DPPC   H6R 13445   0.090000   1.008000
13446       HAL2   104  DPPC   H6S 13446   0.090000   1.008000
13447       CTL2   104  DPPC   C27 13447  -0.180000  12.011000
13448       HAL2   104  DPPC   H7R 13448   0.090000   1.008000
13449       HAL2   104  DPPC   H7S 13449   0.090000   1.008000
13450       CTL2   104  DPPC   C28 13450  -0.180000  12.011000
13451       HAL2   104  DPPC   H8R 13451   0.090000   1.008000
13452       HAL2   104  DPPC   H8S 13452   0.090000   1.008000
13453       CTL2   104  DPPC   C29 13453  -0.180000  12.011000
13454       HAL2   104  DPPC   H9R 13454   0.090000   1.008000
13455       HAL2   104  DPPC   H9S 13455   0.090000   1.008000
13456       CTL2   104  DPPC  C210 13456  -0.180000  12.011000
13457       HAL2   104  DPPC  H10R 13457   0.090000   1.008000
13458       HAL2   104  DPPC  H10S 13458   0.090000   1.008000
13459       CTL2   104  DPPC  C211 13459  -0.180000  12.011000
13460       HAL2   104  DPPC  H11R 13460   0.090000   1.008000
13461       HAL2   104  DPPC  H11S 13461   0.090000   1.008000
13462       CTL2   104  DPPC  C212 13462  -0.180000  12.011000
13463       HAL2   104  DPPC  H12R 13463   0.090000   1.008000
13464       HAL2   104  DPPC  H12S 13464   0.090000   1.008000
13465       CTL2   104  DPPC  C213 13465  -0.180000  12.011000
13466       HAL2   104  DPPC  H13R 13466   0.090000   1.008000
13467       HAL2   104  DPPC  H13S 13467   0.090000   1.008000
13468       CTL2   104  DPPC  C214 13468  -0.180000  12.011000
13469       HAL2   104  DPPC  H14R 13469   0.090000   1.008000
13470       HAL2   104  DPPC  H14S 13470   0.090000   1.008000
13471       CTL2   104  DPPC  C215 13471  -0.180000  12.011000
13472       HAL2   104  DPPC  H15R 13472   0.090000   1.008000
13473       HAL2   104  DPPC  H15S 13473   0.090000   1.008000
13474       CTL3   104  DPPC  C216 13474  -0.270000  12.011000
13475       HAL3   104  DPPC  H16R 13475   0.090000   1.008000
13476       HAL3   104  DPPC  H16S 13476   0.090000   1.008000
13477       HAL3   104  DPPC  H16T 13477   0.090000   1.008000
13478       CTL2   104  DPPC   C33 13478  -0.180000  12.011000
13479       HAL2   104  DPPC   H3X 13479   0.090000   1.008000
13480       HAL2   104  DPPC   H3Y 13480   0.090000   1.008000
13481       CTL2   104  DPPC   C34 13481  -0.180000  12.011000
13482       HAL2   104  DPPC   H4X 13482   0.090000   1.008000
13483       HAL2   104  DPPC   H4Y 13483   0.090000   1.008000
13484       CTL2   104  DPPC   C35 13484  -0.180000  12.011000
13485       HAL2   104  DPPC   H5X 13485   0.090000   1.008000
13486       HAL2   104  DPPC   H5Y 13486   0.090000   1.008000
13487       CTL2   104  DPPC   C36 13487  -0.180000  12.011000
13488       HAL2   104  DPPC   H6X 13488   0.090000   1.008000
13489       HAL2   104  DPPC   H6Y 13489   0.090000   1.008000
13490       CTL2   104  DPPC   C37 13490  -0.180000  12.011000
13491       HAL2   104  DPPC   H7X 13491   0.090000   1.008000
13492       HAL2   104  DPPC   H7Y 13492   0.090000   1.008000
13493       CTL2   104  DPPC   C38 13493  -0.180000  12.011000
13494       HAL2   104  DPPC   H8X 13494   0.090000   1.008000
13495       HAL2   104  DPPC   H8Y 13495   0.090000   1.008000
13496       CTL2   104  DPPC   C39 13496  -0.180000  12.011000
13497       HAL2   104  DPPC   H9X 13497   0.090000   1.008000
13498       HAL2   104  DPPC   H9Y 13498   0.090000   1.008000
13499       CTL2   104  DPPC  C310 13499  -0.180000  12.011000
13500       HAL2   104  DPPC  H10X 13500   0.090000   1.008000
13501       HAL2   104  DPPC  H10Y 13501   0.090000   1.008000
13502       CTL2   104  DPPC  C311 13502  -0.180000  12.011000
13503       HAL2   104  DPPC  H11X 13503   0.090000   1.008000
13504       HAL2   104  DPPC  H11Y 13504   0.090000   1.008000
13505       CTL2   104  DPPC  C312 13505  -0.180000  12.011000
13506       HAL2   104  DPPC  H12X 13506   0.090000   1.008000
13507       HAL2   104  DPPC  H12Y 13507   0.090000   1.008000
13508       CTL2   104  DPPC  C313 13508  -0.180000  12.011000
13509       HAL2   104  DPPC  H13X 13509   0.090000   1.008000
13510       HAL2   104  DPPC  H13Y 13510   0.090000   1.008000
13511       CTL2   104  DPPC  C314 13511  -0.180000  12.011000
13512       HAL2   104  DPPC  H14X 13512   0.090000   1.008000
13513       HAL2   104  DPPC  H14Y 13513   0.090000   1.008000
13514       CTL2   104  DPPC  C315 13514  -0.180000  12.011000
13515       HAL2   104  DPPC  H15X 13515   0.090000   1.008000
13516       HAL2   104  DPPC  H15Y 13516   0.090000   1.008000
13517       CTL3   104  DPPC  C316 13517  -0.270000  12.011000
13518       HAL3   104  DPPC  H16X 13518   0.090000   1.008000
13519       HAL3   104  DPPC  H16Y 13519   0.090000   1.008000
13520       HAL3   104  DPPC  H16Z 13520   0.090000   1.008000
13521        NTL   105  DPPC     N 13521  -0.600000  14.007000
13522       CTL5   105  DPPC   C13 13522  -0.350000  12.011000
13523         HL   105  DPPC  H13A 13523   0.250000   1.008000
13524         HL   105  DPPC  H13B 13524   0.250000   1.008000
13525         HL   105  DPPC  H13C 13525   0.250000   1.008000
13526       CTL5   105  DPPC   C14 13526  -0.350000  12.011000
13527         HL   105  DPPC  H14A 13527   0.250000   1.008000
13528         HL   105  DPPC  H14B 13528   0.250000   1.008000
13529         HL   105  DPPC  H14C 13529   0.250000   1.008000
13530       CTL5   105  DPPC   C15 13530  -0.350000  12.011000
13531         HL   105  DPPC  H15A 13531   0.250000   1.008000
13532         HL   105  DPPC  H15B 13532   0.250000   1.008000
13533         HL   105  DPPC  H15C 13533   0.250000   1.008000
13534       CTL2   105  DPPC   C12 13534  -0.100000  12.011000
13535         HL   105  DPPC  H12A 13535   0.250000   1.008000
13536         HL   105  DPPC  H12B 13536   0.250000   1.008000
13537       CTL2   105  DPPC   C11 13537  -0.080000  12.011000
13538       HAL2   105  DPPC  H11A 13538   0.090000   1.008000
13539       HAL2   105  DPPC  H11B 13539   0.090000   1.008000
13540         PL   105  DPPC     P 13540   1.500000  30.974001
13541        O2L   105  DPPC   O13 13541  -0.780000  15.999400
13542        O2L   105  DPPC   O14 13542  -0.780000  15.999400
13543       OSLP   105  DPPC   O11 13543  -0.570000  15.999400
13544       OSLP   105  DPPC   O12 13544  -0.570000  15.999400
13545       CTL2   105  DPPC    C1 13545  -0.080000  12.011000
13546       HAL2   105  DPPC    HA 13546   0.090000   1.008000
13547       HAL2   105  DPPC    HB 13547   0.090000   1.008000
13548       CTL1   105  DPPC    C2 13548   0.170000  12.011000
13549       HAL1   105  DPPC    HS 13549   0.090000   1.008000
13550        OSL   105  DPPC   O21 13550  -0.490000  15.999400
13551         CL   105  DPPC   C21 13551   0.900000  12.011000
13552        OBL   105  DPPC   O22 13552  -0.630000  15.999400
13553       CTL2   105  DPPC   C22 13553  -0.220000  12.011000
13554       HAL2   105  DPPC   H2R 13554   0.090000   1.008000
13555       HAL2   105  DPPC   H2S 13555   0.090000   1.008000
13556       CTL2   105  DPPC    C3 13556   0.080000  12.011000
13557       HAL2   105  DPPC    HX 13557   0.090000   1.008000
13558       HAL2   105  DPPC    HY 13558   0.090000   1.008000
13559        OSL   105  DPPC   O31 13559  -0.490000  15.999400
13560         CL   105  DPPC   C31 13560   0.900000  12.011000
13561        OBL   105  DPPC   O32 13561  -0.630000  15.999400
13562       CTL2   105  DPPC   C32 13562  -0.220000  12.011000
13563       HAL2   105  DPPC   H2X 13563   0.090000   1.008000
13564       HAL2   105  DPPC   H2Y 13564   0.090000   1.008000
13565       CTL2   105  DPPC   C23 13565  -0.180000  12.011000
13566       HAL2   105  DPPC   H3R 13566   0.090000   1.008000
13567       HAL2   105  DPPC   H3S 13567   0.090000   1.008000
13568       CTL2   105  DPPC   C24 13568  -0.180000  12.011000
13569       HAL2   105  DPPC   H4R 13569   0.090000   1.008000
13570       HAL2   105  DPPC   H4S 13570   0.090000   1.008000
13571       CTL2   105  DPPC   C25 13571  -0.180000  12.011000
13572       HAL2   105  DPPC   H5R 13572   0.090000   1.008000
13573       HAL2   105  DPPC   H5S 13573   0.090000   1.008000
13574       CTL2   105  DPPC   C26 13574  -0.180000  12.011000
13575       HAL2   105  DPPC   H6R 13575   0.090000   1.008000
13576       HAL2   105  DPPC   H6S 13576   0.090000   1.008000
13577       CTL2   105  DPPC   C27 13577  -0.180000  12.011000
13578       HAL2   105  DPPC   H7R 13578   0.090000   1.008000
13579       HAL2   105  DPPC   H7S 13579   0.090000   1.008000
13580       CTL2   105  DPPC   C28 13580  -0.180000  12.011000
13581       HAL2   105  DPPC   H8R 13581   0.090000   1.008000
13582       HAL2   105  DPPC   H8S 13582   0.090000   1.008000
13583       CTL2   105  DPPC   C29 13583  -0.180000  12.011000
13584       HAL2   105  DPPC   H9R 13584   0.090000   1.008000
13585       HAL2   105  DPPC   H9S 13585   0.090000   1.008000
13586       CTL2   105  DPPC  C210 13586  -0.180000  12.011000
13587       HAL2   105  DPPC  H10R 13587   0.090000   1.008000
13588       HAL2   105  DPPC  H10S 13588   0.090000   1.008000
13589       CTL2   105  DPPC  C211 13589  -0.180000  12.011000
13590       HAL2   105  DPPC  H11R 13590   0.090000   1.008000
13591       HAL2   105  DPPC  H11S 13591   0.090000   1.008000
13592       CTL2   105  DPPC  C212 13592  -0.180000  12.011000
13593       HAL2   105  DPPC  H12R 13593   0.090000   1.008000
13594       HAL2   105  DPPC  H12S 13594   0.090000   1.008000
13595       CTL2   105  DPPC  C213 13595  -0.180000  12.011000
13596       HAL2   105  DPPC  H13R 13596   0.090000   1.008000
13597       HAL2   105  DPPC  H13S 13597   0.090000   1.008000
13598       CTL2   105  DPPC  C214 13598  -0.180000  12.011000
13599       HAL2   105  DPPC  H14R 13599   0.090000   1.008000
13600       HAL2   105  DPPC  H14S 13600   0.090000   1.008000
13601       CTL2   105  DPPC  C215 13601  -0.180000  12.011000
13602       HAL2   105  DPPC  H15R 13602   0.090000   1.008000
13603       HAL2   105  DPPC  H15S 13603   0.090000   1.008000
13604       CTL3   105  DPPC  C216 13604  -0.270000  12.011000
13605       HAL3   105  DPPC  H16R 13605   0.090000   1.008000
13606       HAL3   105  DPPC  H16S 13606   0.090000   1.008000
13607       HAL3   105  DPPC  H16T 13607   0.090000   1.008000
13608       CTL2   105  DPPC   C33 13608  -0.180000  12.011000
13609       HAL2   105  DPPC   H3X 13609   0.090000   1.008000
13610       HAL2   105  DPPC   H3Y 13610   0.090000   1.008000
13611       CTL2   105  DPPC   C34 13611  -0.180000  12.011000
13612       HAL2   105  DPPC   H4X 13612   0.090000   1.008000
13613       HAL2   105  DPPC   H4Y 13613   0.090000   1.008000
13614       CTL2   105  DPPC   C35 13614  -0.180000  12.011000
13615       HAL2   105  DPPC   H5X 13615   0.090000   1.008000
13616       HAL2   105  DPPC   H5Y 13616   0.090000   1.008000
13617       CTL2   105  DPPC   C36 13617  -0.180000  12.011000
13618       HAL2   105  DPPC   H6X 13618   0.090000   1.008000
13619       HAL2   105  DPPC   H6Y 13619   0.090000   1.008000
13620       CTL2   105  DPPC   C37 13620  -0.180000  12.011000
13621       HAL2   105  DPPC   H7X 13621   0.090000   1.008000
13622       HAL2   105  DPPC   H7Y 13622   0.090000   1.008000
13623       CTL2   105  DPPC   C38 13623  -0.180000  12.011000
13624       HAL2   105  DPPC   H8X 13624   0.090000   1.008000
13625       HAL2   105  DPPC   H8Y 13625   0.090000   1.008000
13626       CTL2   105  DPPC   C39 13626  -0.180000  12.011000
13627       HAL2   105  DPPC   H9X 13627   0.090000   1.008000
13628       HAL2   105  DPPC   H9Y 13628   0.090000   1.008000
13629       CTL2   105  DPPC  C310 13629  -0.180000  12.011000
13630       HAL2   105  DPPC  H10X 13630   0.090000   1.008000
13631       HAL2   105  DPPC  H10Y 13631   0.090000   1.008000
13632       CTL2   105  DPPC  C311 13632  -0.180000  12.011000
13633       HAL2   105  DPPC  H11X 13633   0.090000   1.008000
13634       HAL2   105  DPPC  H11Y 13634   0.090000   1.008000
13635       CTL2   105  DPPC  C312 13635  -0.180000  12.011000
13636       HAL2   105  DPPC  H12X 13636   0.090000   1.008000
13637       HAL2   105  DPPC  H12Y 13637   0.090000   1.008000
13638       CTL2   105  DPPC  C313 13638  -0.180000  12.011000
13639       HAL2   105  DPPC  H13X 13639   0.090000   1.008000
13640       HAL2   105  DPPC  H13Y 13640   0.090000   1.008000
13641       CTL2   105  DPPC  C314 13641  -0.180000  12.011000
13642       HAL2   105  DPPC  H14X 13642   0.090000   1.008000
13643       HAL2   105  DPPC  H14Y 13643   0.090000   1.008000
13644       CTL2   105  DPPC  C315 13644  -0.180000  12.011000
13645       HAL2   105  DPPC  H15X 13645   0.090000   1.008000
13646       HAL2   105  DPPC  H15Y 13646   0.090000   1.008000
13647       CTL3   105  DPPC  C316 13647  -0.270000  12.011000
13648       HAL3   105  DPPC  H16X 13648   0.090000   1.008000
13649       HAL3   105  DPPC  H16Y 13649   0.090000   1.008000
13650       HAL3   105  DPPC  H16Z 13650   0.090000   1.008000
13651        NTL   106  DPPC     N 13651  -0.600000  14.007000
13652       CTL5   106  DPPC   C13 13652  -0.350000  12.011000
13653         HL   106  DPPC  H13A 13653   0.250000   1.008000
13654         HL   106  DPPC  H13B 13654   0.250000   1.008000
13655         HL   106  DPPC  H13C 13655   0.250000   1.008000
13656       CTL5   106  DPPC   C14 13656  -0.350000  12.011000
13657         HL   106  DPPC  H14A 13657   0.250000   1.008000
13658         HL   106  DPPC  H14B 13658   0.250000   1.008000
13659         HL   106  DPPC  H14C 13659   0.250000   1.008000
13660       CTL5   106  DPPC   C15 13660  -0.350000  12.011000
13661         HL   106  DPPC  H15A 13661   0.250000   1.008000
13662         HL   106  DPPC  H15B 13662   0.250000   1.008000
13663         HL   106  DPPC  H15C 13663   0.250000   1.008000
13664       CTL2   106  DPPC   C12 13664  -0.100000  12.011000
13665         HL   106  DPPC  H12A 13665   0.250000   1.008000
13666         HL   106  DPPC  H12B 13666   0.250000   1.008000
13667       CTL2   106  DPPC   C11 13667  -0.080000  12.011000
13668       HAL2   106  DPPC  H11A 13668   0.090000   1.008000
13669       HAL2   106  DPPC  H11B 13669   0.090000   1.008000
13670         PL   106  DPPC     P 13670   1.500000  30.974001
13671        O2L   106  DPPC   O13 13671  -0.780000  15.999400
13672        O2L   106  DPPC   O14 13672  -0.780000  15.999400
13673       OSLP   106  DPPC   O11 13673  -0.570000  15.999400
13674       OSLP   106  DPPC   O12 13674  -0.570000  15.999400
13675       CTL2   106  DPPC    C1 13675  -0.080000  12.011000
13676       HAL2   106  DPPC    HA 13676   0.090000   1.008000
13677       HAL2   106  DPPC    HB 13677   0.090000   1.008000
13678       CTL1   106  DPPC    C2 13678   0.170000  12.011000
13679       HAL1   106  DPPC    HS 13679   0.090000   1.008000
13680        OSL   106  DPPC   O21 13680  -0.490000  15.999400
13681         CL   106  DPPC   C21 13681   0.900000  12.011000
13682        OBL   106  DPPC   O22 13682  -0.630000  15.999400
13683       CTL2   106  DPPC   C22 13683  -0.220000  12.011000
13684       HAL2   106  DPPC   H2R 13684   0.090000   1.008000
13685       HAL2   106  DPPC   H2S 13685   0.090000   1.008000
13686       CTL2   106  DPPC    C3 13686   0.080000  12.011000
13687       HAL2   106  DPPC    HX 13687   0.090000   1.008000
13688       HAL2   106  DPPC    HY 13688   0.090000   1.008000
13689        OSL   106  DPPC   O31 13689  -0.490000  15.999400
13690         CL   106  DPPC   C31 13690   0.900000  12.011000
13691        OBL   106  DPPC   O32 13691  -0.630000  15.999400
13692       CTL2   106  DPPC   C32 13692  -0.220000  12.011000
13693       HAL2   106  DPPC   H2X 13693   0.090000   1.008000
13694       HAL2   106  DPPC   H2Y 13694   0.090000   1.008000
13695       CTL2   106  DPPC   C23 13695  -0.180000  12.011000
13696       HAL2   106  DPPC   H3R 13696   0.090000   1.008000
13697       HAL2   106  DPPC   H3S 13697   0.090000   1.008000
13698       CTL2   106  DPPC   C24 13698  -0.180000  12.011000
13699       HAL2   106  DPPC   H4R 13699   0.090000   1.008000
13700       HAL2   106  DPPC   H4S 13700   0.090000   1.008000
13701       CTL2   106  DPPC   C25 13701  -0.180000  12.011000
13702       HAL2   106  DPPC   H5R 13702   0.090000   1.008000
13703       HAL2   106  DPPC   H5S 13703   0.090000   1.008000
13704       CTL2   106  DPPC   C26 13704  -0.180000  12.011000
13705       HAL2   106  DPPC   H6R 13705   0.090000   1.008000
13706       HAL2   106  DPPC   H6S 13706   0.090000   1.008000
13707       CTL2   106  DPPC   C27 13707  -0.180000  12.011000
13708       HAL2   106  DPPC   H7R 13708   0.090000   1.008000
13709       HAL2   106  DPPC   H7S 13709   0.090000   1.008000
13710       CTL2   106  DPPC   C28 13710  -0.180000  12.011000
13711       HAL2   106  DPPC   H8R 13711   0.090000   1.008000
13712       HAL2   106  DPPC   H8S 13712   0.090000   1.008000
13713       CTL2   106  DPPC   C29 13713  -0.180000  12.011000
13714       HAL2   106  DPPC   H9R 13714   0.090000   1.008000
13715       HAL2   106  DPPC   H9S 13715   0.090000   1.008000
13716       CTL2   106  DPPC  C210 13716  -0.180000  12.011000
13717       HAL2   106  DPPC  H10R 13717   0.090000   1.008000
13718       HAL2   106  DPPC  H10S 13718   0.090000   1.008000
13719       CTL2   106  DPPC  C211 13719  -0.180000  12.011000
13720       HAL2   106  DPPC  H11R 13720   0.090000   1.008000
13721       HAL2   106  DPPC  H11S 13721   0.090000   1.008000
13722       CTL2   106  DPPC  C212 13722  -0.180000  12.011000
13723       HAL2   106  DPPC  H12R 13723   0.090000   1.008000
13724       HAL2   106  DPPC  H12S 13724   0.090000   1.008000
13725       CTL2   106  DPPC  C213 13725  -0.180000  12.011000
13726       HAL2   106  DPPC  H13R 13726   0.090000   1.008000
13727       HAL2   106  DPPC  H13S 13727   0.090000   1.008000
13728       CTL2   106  DPPC  C214 13728  -0.180000  12.011000
13729       HAL2   106  DPPC  H14R 13729   0.090000   1.008000
13730       HAL2   106  DPPC  H14S 13730   0.090000   1.008000
13731       CTL2   106  DPPC  C215 13731  -0.180000  12.011000
13732       HAL2   106  DPPC  H15R 13732   0.090000   1.008000
13733       HAL2   106  DPPC  H15S 13733   0.090000   1.008000
13734       CTL3   106  DPPC  C216 13734  -0.270000  12.011000
13735       HAL3   106  DPPC  H16R 13735   0.090000   1.008000
13736       HAL3   106  DPPC  H16S 13736   0.090000   1.008000
13737       HAL3   106  DPPC  H16T 13737   0.090000   1.008000
13738       CTL2   106  DPPC   C33 13738  -0.180000  12.011000
13739       HAL2   106  DPPC   H3X 13739   0.090000   1.008000
13740       HAL2   106  DPPC   H3Y 13740   0.090000   1.008000
13741       CTL2   106  DPPC   C34 13741  -0.180000  12.011000
13742       HAL2   106  DPPC   H4X 13742   0.090000   1.008000
13743       HAL2   106  DPPC   H4Y 13743   0.090000   1.008000
13744       CTL2   106  DPPC   C35 13744  -0.180000  12.011000
13745       HAL2   106  DPPC   H5X 13745   0.090000   1.008000
13746       HAL2   106  DPPC   H5Y 13746   0.090000   1.008000
13747       CTL2   106  DPPC   C36 13747  -0.180000  12.011000
13748       HAL2   106  DPPC   H6X 13748   0.090000   1.008000
13749       HAL2   106  DPPC   H6Y 13749   0.090000   1.008000
13750       CTL2   106  DPPC   C37 13750  -0.180000  12.011000
13751       HAL2   106  DPPC   H7X 13751   0.090000   1.008000
13752       HAL2   106  DPPC   H7Y 13752   0.090000   1.008000
13753       CTL2   106  DPPC   C38 13753  -0.180000  12.011000
13754       HAL2   106  DPPC   H8X 13754   0.090000   1.008000
13755       HAL2   106  DPPC   H8Y 13755   0.090000   1.008000
13756       CTL2   106  DPPC   C39 13756  -0.180000  12.011000
13757       HAL2   106  DPPC   H9X 13757   0.090000   1.008000
13758       HAL2   106  DPPC   H9Y 13758   0.090000   1.008000
13759       CTL2   106  DPPC  C310 13759  -0.180000  12.011000
13760       HAL2   106  DPPC  H10X 13760   0.090000   1.008000
13761       HAL2   106  DPPC  H10Y 13761   0.090000   1.008000
13762       CTL2   106  DPPC  C311 13762  -0.180000  12.011000
13763       HAL2   106  DPPC  H11X 13763   0.090000   1.008000
13764       HAL2   106  DPPC  H11Y 13764   0.090000   1.008000
13765       CTL2   106  DPPC  C312 13765  -0.180000  12.011000
13766       HAL2   106  DPPC  H12X 13766   0.090000   1.008000
13767       HAL2   106  DPPC  H12Y 13767   0.090000   1.008000
13768       CTL2   106  DPPC  C313 13768  -0.180000  12.011000
13769       HAL2   106  DPPC  H13X 13769   0.090000   1.008000
13770       HAL2   106  DPPC  H13Y 13770   0.090000   1.008000
13771       CTL2   106  DPPC  C314 13771  -0.180000  12.011000
13772       HAL2   106  DPPC  H14X 13772   0.090000   1.008000
13773       HAL2   106  DPPC  H14Y 13773   0.090000   1.008000
13774       CTL2   106  DPPC  C315 13774  -0.180000  12.011000
13775       HAL2   106  DPPC  H15X 13775   0.090000   1.008000
13776       HAL2   106  DPPC  H15Y 13776   0.090000   1.008000
13777       CTL3   106  DPPC  C316 13777  -0.270000  12.011000
13778       HAL3   106  DPPC  H16X 13778   0.090000   1.008000
13779       HAL3   106  DPPC  H16Y 13779   0.090000   1.008000
13780       HAL3   106  DPPC  H16Z 13780   0.090000   1.008000
13781        NTL   107  DPPC     N 13781  -0.600000  14.007000
13782       CTL5   107  DPPC   C13 13782  -0.350000  12.011000
13783         HL   107  DPPC  H13A 13783   0.250000   1.008000
13784         HL   107  DPPC  H13B 13784   0.250000   1.008000
13785         HL   107  DPPC  H13C 13785   0.250000   1.008000
13786       CTL5   107  DPPC   C14 13786  -0.350000  12.011000
13787         HL   107  DPPC  H14A 13787   0.250000   1.008000
13788         HL   107  DPPC  H14B 13788   0.250000   1.008000
13789         HL   107  DPPC  H14C 13789   0.250000   1.008000
13790       CTL5   107  DPPC   C15 13790  -0.350000  12.011000
13791         HL   107  DPPC  H15A 13791   0.250000   1.008000
13792         HL   107  DPPC  H15B 13792   0.250000   1.008000
13793         HL   107  DPPC  H15C 13793   0.250000   1.008000
13794       CTL2   107  DPPC   C12 13794  -0.100000  12.011000
13795         HL   107  DPPC  H12A 13795   0.250000   1.008000
13796         HL   107  DPPC  H12B 13796   0.250000   1.008000
13797       CTL2   107  DPPC   C11 13797  -0.080000  12.011000
13798       HAL2   107  DPPC  H11A 13798   0.090000   1.008000
13799       HAL2   107  DPPC  H11B 13799   0.090000   1.008000
13800         PL   107  DPPC     P 13800   1.500000  30.974001
13801        O2L   107  DPPC   O13 13801  -0.780000  15.999400
13802        O2L   107  DPPC   O14 13802  -0.780000  15.999400
13803       OSLP   107  DPPC   O11 13803  -0.570000  15.999400
13804       OSLP   107  DPPC   O12 13804  -0.570000  15.999400
13805       CTL2   107  DPPC    C1 13805  -0.080000  12.011000
13806       HAL2   107  DPPC    HA 13806   0.090000   1.008000
13807       HAL2   107  DPPC    HB 13807   0.090000   1.008000
13808       CTL1   107  DPPC    C2 13808   0.170000  12.011000
13809       HAL1   107  DPPC    HS 13809   0.090000   1.008000
13810        OSL   107  DPPC   O21 13810  -0.490000  15.999400
13811         CL   107  DPPC   C21 13811   0.900000  12.011000
13812        OBL   107  DPPC   O22 13812  -0.630000  15.999400
13813       CTL2   107  DPPC   C22 13813  -0.220000  12.011000
13814       HAL2   107  DPPC   H2R 13814   0.090000   1.008000
13815       HAL2   107  DPPC   H2S 13815   0.090000   1.008000
13816       CTL2   107  DPPC    C3 13816   0.080000  12.011000
13817       HAL2   107  DPPC    HX 13817   0.090000   1.008000
13818       HAL2   107  DPPC    HY 13818   0.090000   1.008000
13819        OSL   107  DPPC   O31 13819  -0.490000  15.999400
13820         CL   107  DPPC   C31 13820   0.900000  12.011000
13821        OBL   107  DPPC   O32 13821  -0.630000  15.999400
13822       CTL2   107  DPPC   C32 13822  -0.220000  12.011000
13823       HAL2   107  DPPC   H2X 13823   0.090000   1.008000
13824       HAL2   107  DPPC   H2Y 13824   0.090000   1.008000
13825       CTL2   107  DPPC   C23 13825  -0.180000  12.011000
13826       HAL2   107  DPPC   H3R 13826   0.090000   1.008000
13827       HAL2   107  DPPC   H3S 13827   0.090000   1.008000
13828       CTL2   107  DPPC   C24 13828  -0.180000  12.011000
13829       HAL2   107  DPPC   H4R 13829   0.090000   1.008000
13830       HAL2   107  DPPC   H4S 13830   0.090000   1.008000
13831       CTL2   107  DPPC   C25 13831  -0.180000  12.011000
13832       HAL2   107  DPPC   H5R 13832   0.090000   1.008000
13833       HAL2   107  DPPC   H5S 13833   0.090000   1.008000
13834       CTL2   107  DPPC   C26 13834  -0.180000  12.011000
13835       HAL2   107  DPPC   H6R 13835   0.090000   1.008000
13836       HAL2   107  DPPC   H6S 13836   0.090000   1.008000
13837       CTL2   107  DPPC   C27 13837  -0.180000  12.011000
13838       HAL2   107  DPPC   H7R 13838   0.090000   1.008000
13839       HAL2   107  DPPC   H7S 13839   0.090000   1.008000
13840       CTL2   107  DPPC   C28 13840  -0.180000  12.011000
13841       HAL2   107  DPPC   H8R 13841   0.090000   1.008000
13842       HAL2   107  DPPC   H8S 13842   0.090000   1.008000
13843       CTL2   107  DPPC   C29 13843  -0.180000  12.011000
13844       HAL2   107  DPPC   H9R 13844   0.090000   1.008000
13845       HAL2   107  DPPC   H9S 13845   0.090000   1.008000
13846       CTL2   107  DPPC  C210 13846  -0.180000  12.011000
13847       HAL2   107  DPPC  H10R 13847   0.090000   1.008000
13848       HAL2   107  DPPC  H10S 13848   0.090000   1.008000
13849       CTL2   107  DPPC  C211 13849  -0.180000  12.011000
13850       HAL2   107  DPPC  H11R 13850   0.090000   1.008000
13851       HAL2   107  DPPC  H11S 13851   0.090000   1.008000
13852       CTL2   107  DPPC  C212 13852  -0.180000  12.011000
13853       HAL2   107  DPPC  H12R 13853   0.090000   1.008000
13854       HAL2   107  DPPC  H12S 13854   0.090000   1.008000
13855       CTL2   107  DPPC  C213 13855  -0.180000  12.011000
13856       HAL2   107  DPPC  H13R 13856   0.090000   1.008000
13857       HAL2   107  DPPC  H13S 13857   0.090000   1.008000
13858       CTL2   107  DPPC  C214 13858  -0.180000  12.011000
13859       HAL2   107  DPPC  H14R 13859   0.090000   1.008000
13860       HAL2   107  DPPC  H14S 13860   0.090000   1.008000
13861       CTL2   107  DPPC  C215 13861  -0.180000  12.011000
13862       HAL2   107  DPPC  H15R 13862   0.090000   1.008000
13863       HAL2   107  DPPC  H15S 13863   0.090000   1.008000
13864       CTL3   107  DPPC  C216 13864  -0.270000  12.011000
13865       HAL3   107  DPPC  H16R 13865   0.090000   1.008000
13866       HAL3   107  DPPC  H16S 13866   0.090000   1.008000
13867       HAL3   107  DPPC  H16T 13867   0.090000   1.008000
13868       CTL2   107  DPPC   C33 13868  -0.180000  12.011000
13869       HAL2   107  DPPC   H3X 13869   0.090000   1.008000
13870       HAL2   107  DPPC   H3Y 13870   0.090000   1.008000
13871       CTL2   107  DPPC   C34 13871  -0.180000  12.011000
13872       HAL2   107  DPPC   H4X 13872   0.090000   1.008000
13873       HAL2   107  DPPC   H4Y 13873   0.090000   1.008000
13874       CTL2   107  DPPC   C35 13874  -0.180000  12.011000
13875       HAL2   107  DPPC   H5X 13875   0.090000   1.008000
13876       HAL2   107  DPPC   H5Y 13876   0.090000   1.008000
13877       CTL2   107  DPPC   C36 13877  -0.180000  12.011000
13878       HAL2   107  DPPC   H6X 13878   0.090000   1.008000
13879       HAL2   107  DPPC   H6Y 13879   0.090000   1.008000
13880       CTL2   107  DPPC   C37 13880  -0.180000  12.011000
13881       HAL2   107  DPPC   H7X 13881   0.090000   1.008000
13882       HAL2   107  DPPC   H7Y 13882   0.090000   1.008000
13883       CTL2   107  DPPC   C38 13883  -0.180000  12.011000
13884       HAL2   107  DPPC   H8X 13884   0.090000   1.008000
13885       HAL2   107  DPPC   H8Y 13885   0.090000   1.008000
13886       CTL2   107  DPPC   C39 13886  -0.180000  12.011000
13887       HAL2   107  DPPC   H9X 13887   0.090000   1.008000
13888       HAL2   107  DPPC   H9Y 13888   0.090000   1.008000
13889       CTL2   107  DPPC  C310 13889  -0.180000  12.011000
13890       HAL2   107  DPPC  H10X 13890   0.090000   1.008000
13891       HAL2   107  DPPC  H10Y 13891   0.090000   1.008000
13892       CTL2   107  DPPC  C311 13892  -0.180000  12.011000
13893       HAL2   107  DPPC  H11X 13893   0.090000   1.008000
13894       HAL2   107  DPPC  H11Y 13894   0.090000   1.008000
13895       CTL2   107  DPPC  C312 13895  -0.180000  12.011000
13896       HAL2   107  DPPC  H12X 13896   0.090000   1.008000
13897       HAL2   107  DPPC  H12Y 13897   0.090000   1.008000
13898       CTL2   107  DPPC  C313 13898  -0.180000  12.011000
13899       HAL2   107  DPPC  H13X 13899   0.090000   1.008000
13900       HAL2   107  DPPC  H13Y 13900   0.090000   1.008000
13901       CTL2   107  DPPC  C314 13901  -0.180000  12.011000
13902       HAL2   107  DPPC  H14X 13902   0.090000   1.008000
13903       HAL2   107  DPPC  H14Y 13903   0.090000   1.008000
13904       CTL2   107  DPPC  C315 13904  -0.180000  12.011000
13905       HAL2   107  DPPC  H15X 13905   0.090000   1.008000
13906       HAL2   107  DPPC  H15Y 13906   0.090000   1.008000
13907       CTL3   107  DPPC  C316 13907  -0.270000  12.011000
13908       HAL3   107  DPPC  H16X 13908   0.090000   1.008000
13909       HAL3   107  DPPC  H16Y 13909   0.090000   1.008000
13910       HAL3   107  DPPC  H16Z 13910   0.090000   1.008000
13911        NTL   108  DPPC     N 13911  -0.600000  14.007000
13912       CTL5   108  DPPC   C13 13912  -0.350000  12.011000
13913         HL   108  DPPC  H13A 13913   0.250000   1.008000
13914         HL   108  DPPC  H13B 13914   0.250000   1.008000
13915         HL   108  DPPC  H13C 13915   0.250000   1.008000
13916       CTL5   108  DPPC   C14 13916  -0.350000  12.011000
13917         HL   108  DPPC  H14A 13917   0.250000   1.008000
13918         HL   108  DPPC  H14B 13918   0.250000   1.008000
13919         HL   108  DPPC  H14C 13919   0.250000   1.008000
13920       CTL5   108  DPPC   C15 13920  -0.350000  12.011000
13921         HL   108  DPPC  H15A 13921   0.250000   1.008000
13922         HL   108  DPPC  H15B 13922   0.250000   1.008000
13923         HL   108  DPPC  H15C 13923   0.250000   1.008000
13924       CTL2   108  DPPC   C12 13924  -0.100000  12.011000
13925         HL   108  DPPC  H12A 13925   0.250000   1.008000
13926         HL   108  DPPC  H12B 13926   0.250000   1.008000
13927       CTL2   108  DPPC   C11 13927  -0.080000  12.011000
13928       HAL2   108  DPPC  H11A 13928   0.090000   1.008000
13929       HAL2   108  DPPC  H11B 13929   0.090000   1.008000
13930         PL   108  DPPC     P 13930   1.500000  30.974001
13931        O2L   108  DPPC   O13 13931  -0.780000  15.999400
13932        O2L   108  DPPC   O14 13932  -0.780000  15.999400
13933       OSLP   108  DPPC   O11 13933  -0.570000  15.999400
13934       OSLP   108  DPPC   O12 13934  -0.570000  15.999400
13935       CTL2   108  DPPC    C1 13935  -0.080000  12.011000
13936       HAL2   108  DPPC    HA 13936   0.090000   1.008000
13937       HAL2   108  DPPC    HB 13937   0.090000   1.008000
13938       CTL1   108  DPPC    C2 13938   0.170000  12.011000
13939       HAL1   108  DPPC    HS 13939   0.090000   1.008000
13940        OSL   108  DPPC   O21 13940  -0.490000  15.999400
13941         CL   108  DPPC   C21 13941   0.900000  12.011000
13942        OBL   108  DPPC   O22 13942  -0.630000  15.999400
13943       CTL2   108  DPPC   C22 13943  -0.220000  12.011000
13944       HAL2   108  DPPC   H2R 13944   0.090000   1.008000
13945       HAL2   108  DPPC   H2S 13945   0.090000   1.008000
13946       CTL2   108  DPPC    C3 13946   0.080000  12.011000
13947       HAL2   108  DPPC    HX 13947   0.090000   1.008000
13948       HAL2   108  DPPC    HY 13948   0.090000   1.008000
13949        OSL   108  DPPC   O31 13949  -0.490000  15.999400
13950         CL   108  DPPC   C31 13950   0.900000  12.011000
13951        OBL   108  DPPC   O32 13951  -0.630000  15.999400
13952       CTL2   108  DPPC   C32 13952  -0.220000  12.011000
13953       HAL2   108  DPPC   H2X 13953   0.090000   1.008000
13954       HAL2   108  DPPC   H2Y 13954   0.090000   1.008000
13955       CTL2   108  DPPC   C23 13955  -0.180000  12.011000
13956       HAL2   108  DPPC   H3R 13956   0.090000   1.008000
13957       HAL2   108  DPPC   H3S 13957   0.090000   1.008000
13958       CTL2   108  DPPC   C24 13958  -0.180000  12.011000
13959       HAL2   108  DPPC   H4R 13959   0.090000   1.008000
13960       HAL2   108  DPPC   H4S 13960   0.090000   1.008000
13961       CTL2   108  DPPC   C25 13961  -0.180000  12.011000
13962       HAL2   108  DPPC   H5R 13962   0.090000   1.008000
13963       HAL2   108  DPPC   H5S 13963   0.090000   1.008000
13964       CTL2   108  DPPC   C26 13964  -0.180000  12.011000
13965       HAL2   108  DPPC   H6R 13965   0.090000   1.008000
13966       HAL2   108  DPPC   H6S 13966   0.090000   1.008000
13967       CTL2   108  DPPC   C27 13967  -0.180000  12.011000
13968       HAL2   108  DPPC   H7R 13968   0.090000   1.008000
13969       HAL2   108  DPPC   H7S 13969   0.090000   1.008000
13970       CTL2   108  DPPC   C28 13970  -0.180000  12.011000
13971       HAL2   108  DPPC   H8R 13971   0.090000   1.008000
13972       HAL2   108  DPPC   H8S 13972   0.090000   1.008000
13973       CTL2   108  DPPC   C29 13973  -0.180000  12.011000
13974       HAL2   108  DPPC   H9R 13974   0.090000   1.008000
13975       HAL2   108  DPPC   H9S 13975   0.090000   1.008000
13976       CTL2   108  DPPC  C210 13976  -0.180000  12.011000
13977       HAL2   108  DPPC  H10R 13977   0.090000   1.008000
13978       HAL2   108  DPPC  H10S 13978   0.090000   1.008000
13979       CTL2   108  DPPC  C211 13979  -0.180000  12.011000
13980       HAL2   108  DPPC  H11R 13980   0.090000   1.008000
13981       HAL2   108  DPPC  H11S 13981   0.090000   1.008000
13982       CTL2   108  DPPC  C212 13982  -0.180000  12.011000
13983       HAL2   108  DPPC  H12R 13983   0.090000   1.008000
13984       HAL2   108  DPPC  H12S 13984   0.090000   1.008000
13985       CTL2   108  DPPC  C213 13985  -0.180000  12.011000
13986       HAL2   108  DPPC  H13R 13986   0.090000   1.008000
13987       HAL2   108  DPPC  H13S 13987   0.090000   1.008000
13988       CTL2   108  DPPC  C214 13988  -0.180000  12.011000
13989       HAL2   108  DPPC  H14R 13989   0.090000   1.008000
13990       HAL2   108  DPPC  H14S 13990   0.090000   1.008000
13991       CTL2   108  DPPC  C215 13991  -0.180000  12.011000
13992       HAL2   108  DPPC  H15R 13992   0.090000   1.008000
13993       HAL2   108  DPPC  H15S 13993   0.090000   1.008000
13994       CTL3   108  DPPC  C216 13994  -0.270000  12.011000
13995       HAL3   108  DPPC  H16R 13995   0.090000   1.008000
13996       HAL3   108  DPPC  H16S 13996   0.090000   1.008000
13997       HAL3   108  DPPC  H16T 13997   0.090000   1.008000
13998       CTL2   108  DPPC   C33 13998  -0.180000  12.011000
13999       HAL2   108  DPPC   H3X 13999   0.090000   1.008000
14000       HAL2   108  DPPC   H3Y 14000   0.090000   1.008000
14001       CTL2   108  DPPC   C34 14001  -0.180000  12.011000
14002       HAL2   108  DPPC   H4X 14002   0.090000   1.008000
14003       HAL2   108  DPPC   H4Y 14003   0.090000   1.008000
14004       CTL2   108  DPPC   C35 14004  -0.180000  12.011000
14005       HAL2   108  DPPC   H5X 14005   0.090000   1.008000
14006       HAL2   108  DPPC   H5Y 14006   0.090000   1.008000
14007       CTL2   108  DPPC   C36 14007  -0.180000  12.011000
14008       HAL2   108  DPPC   H6X 14008   0.090000   1.008000
14009       HAL2   108  DPPC   H6Y 14009   0.090000   1.008000
14010       CTL2   108  DPPC   C37 14010  -0.180000  12.011000
14011       HAL2   108  DPPC   H7X 14011   0.090000   1.008000
14012       HAL2   108  DPPC   H7Y 14012   0.090000   1.008000
14013       CTL2   108  DPPC   C38 14013  -0.180000  12.011000
14014       HAL2   108  DPPC   H8X 14014   0.090000   1.008000
14015       HAL2   108  DPPC   H8Y 14015   0.090000   1.008000
14016       CTL2   108  DPPC   C39 14016  -0.180000  12.011000
14017       HAL2   108  DPPC   H9X 14017   0.090000   1.008000
14018       HAL2   108  DPPC   H9Y 14018   0.090000   1.008000
14019       CTL2   108  DPPC  C310 14019  -0.180000  12.011000
14020       HAL2   108  DPPC  H10X 14020   0.090000   1.008000
14021       HAL2   108  DPPC  H10Y 14021   0.090000   1.008000
14022       CTL2   108  DPPC  C311 14022  -0.180000  12.011000
14023       HAL2   108  DPPC  H11X 14023   0.090000   1.008000
14024       HAL2   108  DPPC  H11Y 14024   0.090000   1.008000
14025       CTL2   108  DPPC  C312 14025  -0.180000  12.011000
14026       HAL2   108  DPPC  H12X 14026   0.090000   1.008000
14027       HAL2   108  DPPC  H12Y 14027   0.090000   1.008000
14028       CTL2   108  DPPC  C313 14028  -0.180000  12.011000
14029       HAL2   108  DPPC  H13X 14029   0.090000   1.008000
14030       HAL2   108  DPPC  H13Y 14030   0.090000   1.008000
14031       CTL2   108  DPPC  C314 14031  -0.180000  12.011000
14032       HAL2   108  DPPC  H14X 14032   0.090000   1.008000
14033       HAL2   108  DPPC  H14Y 14033   0.090000   1.008000
14034       CTL2   108  DPPC  C315 14034  -0.180000  12.011000
14035       HAL2   108  DPPC  H15X 14035   0.090000   1.008000
14036       HAL2   108  DPPC  H15Y 14036   0.090000   1.008000
14037       CTL3   108  DPPC  C316 14037  -0.270000  12.011000
14038       HAL3   108  DPPC  H16X 14038   0.090000   1.008000
14039       HAL3   108  DPPC  H16Y 14039   0.090000   1.008000
14040       HAL3   108  DPPC  H16Z 14040   0.090000   1.008000
14041        NTL   109  DPPC     N 14041  -0.600000  14.007000
14042       CTL5   109  DPPC   C13 14042  -0.350000  12.011000
14043         HL   109  DPPC  H13A 14043   0.250000   1.008000
14044         HL   109  DPPC  H13B 14044   0.250000   1.008000
14045         HL   109  DPPC  H13C 14045   0.250000   1.008000
14046       CTL5   109  DPPC   C14 14046  -0.350000  12.011000
14047         HL   109  DPPC  H14A 14047   0.250000   1.008000
14048         HL   109  DPPC  H14B 14048   0.250000   1.008000
14049         HL   109  DPPC  H14C 14049   0.250000   1.008000
14050       CTL5   109  DPPC   C15 14050  -0.350000  12.011000
14051         HL   109  DPPC  H15A 14051   0.250000   1.008000
14052         HL   109  DPPC  H15B 14052   0.250000   1.008000
14053         HL   109  DPPC  H15C 14053   0.250000   1.008000
14054       CTL2   109  DPPC   C12 14054  -0.100000  12.011000
14055         HL   109  DPPC  H12A 14055   0.250000   1.008000
14056         HL   109  DPPC  H12B 14056   0.250000   1.008000
14057       CTL2   109  DPPC   C11 14057  -0.080000  12.011000
14058       HAL2   109  DPPC  H11A 14058   0.090000   1.008000
14059       HAL2   109  DPPC  H11B 14059   0.090000   1.008000
14060         PL   109  DPPC     P 14060   1.500000  30.974001
14061        O2L   109  DPPC   O13 14061  -0.780000  15.999400
14062        O2L   109  DPPC   O14 14062  -0.780000  15.999400
14063       OSLP   109  DPPC   O11 14063  -0.570000  15.999400
14064       OSLP   109  DPPC   O12 14064  -0.570000  15.999400
14065       CTL2   109  DPPC    C1 14065  -0.080000  12.011000
14066       HAL2   109  DPPC    HA 14066   0.090000   1.008000
14067       HAL2   109  DPPC    HB 14067   0.090000   1.008000
14068       CTL1   109  DPPC    C2 14068   0.170000  12.011000
14069       HAL1   109  DPPC    HS 14069   0.090000   1.008000
14070        OSL   109  DPPC   O21 14070  -0.490000  15.999400
14071         CL   109  DPPC   C21 14071   0.900000  12.011000
14072        OBL   109  DPPC   O22 14072  -0.630000  15.999400
14073       CTL2   109  DPPC   C22 14073  -0.220000  12.011000
14074       HAL2   109  DPPC   H2R 14074   0.090000   1.008000
14075       HAL2   109  DPPC   H2S 14075   0.090000   1.008000
14076       CTL2   109  DPPC    C3 14076   0.080000  12.011000
14077       HAL2   109  DPPC    HX 14077   0.090000   1.008000
14078       HAL2   109  DPPC    HY 14078   0.090000   1.008000
14079        OSL   109  DPPC   O31 14079  -0.490000  15.999400
14080         CL   109  DPPC   C31 14080   0.900000  12.011000
14081        OBL   109  DPPC   O32 14081  -0.630000  15.999400
14082       CTL2   109  DPPC   C32 14082  -0.220000  12.011000
14083       HAL2   109  DPPC   H2X 14083   0.090000   1.008000
14084       HAL2   109  DPPC   H2Y 14084   0.090000   1.008000
14085       CTL2   109  DPPC   C23 14085  -0.180000  12.011000
14086       HAL2   109  DPPC   H3R 14086   0.090000   1.008000
14087       HAL2   109  DPPC   H3S 14087   0.090000   1.008000
14088       CTL2   109  DPPC   C24 14088  -0.180000  12.011000
14089       HAL2   109  DPPC   H4R 14089   0.090000   1.008000
14090       HAL2   109  DPPC   H4S 14090   0.090000   1.008000
14091       CTL2   109  DPPC   C25 14091  -0.180000  12.011000
14092       HAL2   109  DPPC   H5R 14092   0.090000   1.008000
14093       HAL2   109  DPPC   H5S 14093   0.090000   1.008000
14094       CTL2   109  DPPC   C26 14094  -0.180000  12.011000
14095       HAL2   109  DPPC   H6R 14095   0.090000   1.008000
14096       HAL2   109  DPPC   H6S 14096   0.090000   1.008000
14097       CTL2   109  DPPC   C27 14097  -0.180000  12.011000
14098       HAL2   109  DPPC   H7R 14098   0.090000   1.008000
14099       HAL2   109  DPPC   H7S 14099   0.090000   1.008000
14100       CTL2   109  DPPC   C28 14100  -0.180000  12.011000
14101       HAL2   109  DPPC   H8R 14101   0.090000   1.008000
14102       HAL2   109  DPPC   H8S 14102   0.090000   1.008000
14103       CTL2   109  DPPC   C29 14103  -0.180000  12.011000
14104       HAL2   109  DPPC   H9R 14104   0.090000   1.008000
14105       HAL2   109  DPPC   H9S 14105   0.090000   1.008000
14106       CTL2   109  DPPC  C210 14106  -0.180000  12.011000
14107       HAL2   109  DPPC  H10R 14107   0.090000   1.008000
14108       HAL2   109  DPPC  H10S 14108   0.090000   1.008000
14109       CTL2   109  DPPC  C211 14109  -0.180000  12.011000
14110       HAL2   109  DPPC  H11R 14110   0.090000   1.008000
14111       HAL2   109  DPPC  H11S 14111   0.090000   1.008000
14112       CTL2   109  DPPC  C212 14112  -0.180000  12.011000
14113       HAL2   109  DPPC  H12R 14113   0.090000   1.008000
14114       HAL2   109  DPPC  H12S 14114   0.090000   1.008000
14115       CTL2   109  DPPC  C213 14115  -0.180000  12.011000
14116       HAL2   109  DPPC  H13R 14116   0.090000   1.008000
14117       HAL2   109  DPPC  H13S 14117   0.090000   1.008000
14118       CTL2   109  DPPC  C214 14118  -0.180000  12.011000
14119       HAL2   109  DPPC  H14R 14119   0.090000   1.008000
14120       HAL2   109  DPPC  H14S 14120   0.090000   1.008000
14121       CTL2   109  DPPC  C215 14121  -0.180000  12.011000
14122       HAL2   109  DPPC  H15R 14122   0.090000   1.008000
14123       HAL2   109  DPPC  H15S 14123   0.090000   1.008000
14124       CTL3   109  DPPC  C216 14124  -0.270000  12.011000
14125       HAL3   109  DPPC  H16R 14125   0.090000   1.008000
14126       HAL3   109  DPPC  H16S 14126   0.090000   1.008000
14127       HAL3   109  DPPC  H16T 14127   0.090000   1.008000
14128       CTL2   109  DPPC   C33 14128  -0.180000  12.011000
14129       HAL2   109  DPPC   H3X 14129   0.090000   1.008000
14130       HAL2   109  DPPC   H3Y 14130   0.090000   1.008000
14131       CTL2   109  DPPC   C34 14131  -0.180000  12.011000
14132       HAL2   109  DPPC   H4X 14132   0.090000   1.008000
14133       HAL2   109  DPPC   H4Y 14133   0.090000   1.008000
14134       CTL2   109  DPPC   C35 14134  -0.180000  12.011000
14135       HAL2   109  DPPC   H5X 14135   0.090000   1.008000
14136       HAL2   109  DPPC   H5Y 14136   0.090000   1.008000
14137       CTL2   109  DPPC   C36 14137  -0.180000  12.011000
14138       HAL2   109  DPPC   H6X 14138   0.090000   1.008000
14139       HAL2   109  DPPC   H6Y 14139   0.090000   1.008000
14140       CTL2   109  DPPC   C37 14140  -0.180000  12.011000
14141       HAL2   109  DPPC   H7X 14141   0.090000   1.008000
14142       HAL2   109  DPPC   H7Y 14142   0.090000   1.008000
14143       CTL2   109  DPPC   C38 14143  -0.180000  12.011000
14144       HAL2   109  DPPC   H8X 14144   0.090000   1.008000
14145       HAL2   109  DPPC   H8Y 14145   0.090000   1.008000
14146       CTL2   109  DPPC   C39 14146  -0.180000  12.011000
14147       HAL2   109  DPPC   H9X 14147   0.090000   1.008000
14148       HAL2   109  DPPC   H9Y 14148   0.090000   1.008000
14149       CTL2   109  DPPC  C310 14149  -0.180000  12.011000
14150       HAL2   109  DPPC  H10X 14150   0.090000   1.008000
14151       HAL2   109  DPPC  H10Y 14151   0.090000   1.008000
14152       CTL2   109  DPPC  C311 14152  -0.180000  12.011000
14153       HAL2   109  DPPC  H11X 14153   0.090000   1.008000
14154       HAL2   109  DPPC  H11Y 14154   0.090000   1.008000
14155       CTL2   109  DPPC  C312 14155  -0.180000  12.011000
14156       HAL2   109  DPPC  H12X 14156   0.090000   1.008000
14157       HAL2   109  DPPC  H12Y 14157   0.090000   1.008000
14158       CTL2   109  DPPC  C313 14158  -0.180000  12.011000
14159       HAL2   109  DPPC  H13X 14159   0.090000   1.008000
14160       HAL2   109  DPPC  H13Y 14160   0.090000   1.008000
14161       CTL2   109  DPPC  C314 14161  -0.180000  12.011000
14162       HAL2   109  DPPC  H14X 14162   0.090000   1.008000
14163       HAL2   109  DPPC  H14Y 14163   0.090000   1.008000
14164       CTL2   109  DPPC  C315 14164  -0.180000  12.011000
14165       HAL2   109  DPPC  H15X 14165   0.090000   1.008000
14166       HAL2   109  DPPC  H15Y 14166   0.090000   1.008000
14167       CTL3   109  DPPC  C316 14167  -0.270000  12.011000
14168       HAL3   109  DPPC  H16X 14168   0.090000   1.008000
14169       HAL3   109  DPPC  H16Y 14169   0.090000   1.008000
14170       HAL3   109  DPPC  H16Z 14170   0.090000   1.008000
14171        NTL   110  DPPC     N 14171  -0.600000  14.007000
14172       CTL5   110  DPPC   C13 14172  -0.350000  12.011000
14173         HL   110  DPPC  H13A 14173   0.250000   1.008000
14174         HL   110  DPPC  H13B 14174   0.250000   1.008000
14175         HL   110  DPPC  H13C 14175   0.250000   1.008000
14176       CTL5   110  DPPC   C14 14176  -0.350000  12.011000
14177         HL   110  DPPC  H14A 14177   0.250000   1.008000
14178         HL   110  DPPC  H14B 14178   0.250000   1.008000
14179         HL   110  DPPC  H14C 14179   0.250000   1.008000
14180       CTL5   110  DPPC   C15 14180  -0.350000  12.011000
14181         HL   110  DPPC  H15A 14181   0.250000   1.008000
14182         HL   110  DPPC  H15B 14182   0.250000   1.008000
14183         HL   110  DPPC  H15C 14183   0.250000   1.008000
14184       CTL2   110  DPPC   C12 14184  -0.100000  12.011000
14185         HL   110  DPPC  H12A 14185   0.250000   1.008000
14186         HL   110  DPPC  H12B 14186   0.250000   1.008000
14187       CTL2   110  DPPC   C11 14187  -0.080000  12.011000
14188       HAL2   110  DPPC  H11A 14188   0.090000   1.008000
14189       HAL2   110  DPPC  H11B 14189   0.090000   1.008000
14190         PL   110  DPPC     P 14190   1.500000  30.974001
14191        O2L   110  DPPC   O13 14191  -0.780000  15.999400
14192        O2L   110  DPPC   O14 14192  -0.780000  15.999400
14193       OSLP   110  DPPC   O11 14193  -0.570000  15.999400
14194       OSLP   110  DPPC   O12 14194  -0.570000  15.999400
14195       CTL2   110  DPPC    C1 14195  -0.080000  12.011000
14196       HAL2   110  DPPC    HA 14196   0.090000   1.008000
14197       HAL2   110  DPPC    HB 14197   0.090000   1.008000
14198       CTL1   110  DPPC    C2 14198   0.170000  12.011000
14199       HAL1   110  DPPC    HS 14199   0.090000   1.008000
14200        OSL   110  DPPC   O21 14200  -0.490000  15.999400
14201         CL   110  DPPC   C21 14201   0.900000  12.011000
14202        OBL   110  DPPC   O22 14202  -0.630000  15.999400
14203       CTL2   110  DPPC   C22 14203  -0.220000  12.011000
14204       HAL2   110  DPPC   H2R 14204   0.090000   1.008000
14205       HAL2   110  DPPC   H2S 14205   0.090000   1.008000
14206       CTL2   110  DPPC    C3 14206   0.080000  12.011000
14207       HAL2   110  DPPC    HX 14207   0.090000   1.008000
14208       HAL2   110  DPPC    HY 14208   0.090000   1.008000
14209        OSL   110  DPPC   O31 14209  -0.490000  15.999400
14210         CL   110  DPPC   C31 14210   0.900000  12.011000
14211        OBL   110  DPPC   O32 14211  -0.630000  15.999400
14212       CTL2   110  DPPC   C32 14212  -0.220000  12.011000
14213       HAL2   110  DPPC   H2X 14213   0.090000   1.008000
14214       HAL2   110  DPPC   H2Y 14214   0.090000   1.008000
14215       CTL2   110  DPPC   C23 14215  -0.180000  12.011000
14216       HAL2   110  DPPC   H3R 14216   0.090000   1.008000
14217       HAL2   110  DPPC   H3S 14217   0.090000   1.008000
14218       CTL2   110  DPPC   C24 14218  -0.180000  12.011000
14219       HAL2   110  DPPC   H4R 14219   0.090000   1.008000
14220       HAL2   110  DPPC   H4S 14220   0.090000   1.008000
14221       CTL2   110  DPPC   C25 14221  -0.180000  12.011000
14222       HAL2   110  DPPC   H5R 14222   0.090000   1.008000
14223       HAL2   110  DPPC   H5S 14223   0.090000   1.008000
14224       CTL2   110  DPPC   C26 14224  -0.180000  12.011000
14225       HAL2   110  DPPC   H6R 14225   0.090000   1.008000
14226       HAL2   110  DPPC   H6S 14226   0.090000   1.008000
14227       CTL2   110  DPPC   C27 14227  -0.180000  12.011000
14228       HAL2   110  DPPC   H7R 14228   0.090000   1.008000
14229       HAL2   110  DPPC   H7S 14229   0.090000   1.008000
14230       CTL2   110  DPPC   C28 14230  -0.180000  12.011000
14231       HAL2   110  DPPC   H8R 14231   0.090000   1.008000
14232       HAL2   110  DPPC   H8S 14232   0.090000   1.008000
14233       CTL2   110  DPPC   C29 14233  -0.180000  12.011000
14234       HAL2   110  DPPC   H9R 14234   0.090000   1.008000
14235       HAL2   110  DPPC   H9S 14235   0.090000   1.008000
14236       CTL2   110  DPPC  C210 14236  -0.180000  12.011000
14237       HAL2   110  DPPC  H10R 14237   0.090000   1.008000
14238       HAL2   110  DPPC  H10S 14238   0.090000   1.008000
14239       CTL2   110  DPPC  C211 14239  -0.180000  12.011000
14240       HAL2   110  DPPC  H11R 14240   0.090000   1.008000
14241       HAL2   110  DPPC  H11S 14241   0.090000   1.008000
14242       CTL2   110  DPPC  C212 14242  -0.180000  12.011000
14243       HAL2   110  DPPC  H12R 14243   0.090000   1.008000
14244       HAL2   110  DPPC  H12S 14244   0.090000   1.008000
14245       CTL2   110  DPPC  C213 14245  -0.180000  12.011000
14246       HAL2   110  DPPC  H13R 14246   0.090000   1.008000
14247       HAL2   110  DPPC  H13S 14247   0.090000   1.008000
14248       CTL2   110  DPPC  C214 14248  -0.180000  12.011000
14249       HAL2   110  DPPC  H14R 14249   0.090000   1.008000
14250       HAL2   110  DPPC  H14S 14250   0.090000   1.008000
14251       CTL2   110  DPPC  C215 14251  -0.180000  12.011000
14252       HAL2   110  DPPC  H15R 14252   0.090000   1.008000
14253       HAL2   110  DPPC  H15S 14253   0.090000   1.008000
14254       CTL3   110  DPPC  C216 14254  -0.270000  12.011000
14255       HAL3   110  DPPC  H16R 14255   0.090000   1.008000
14256       HAL3   110  DPPC  H16S 14256   0.090000   1.008000
14257       HAL3   110  DPPC  H16T 14257   0.090000   1.008000
14258       CTL2   110  DPPC   C33 14258  -0.180000  12.011000
14259       HAL2   110  DPPC   H3X 14259   0.090000   1.008000
14260       HAL2   110  DPPC   H3Y 14260   0.090000   1.008000
14261       CTL2   110  DPPC   C34 14261  -0.180000  12.011000
14262       HAL2   110  DPPC   H4X 14262   0.090000   1.008000
14263       HAL2   110  DPPC   H4Y 14263   0.090000   1.008000
14264       CTL2   110  DPPC   C35 14264  -0.180000  12.011000
14265       HAL2   110  DPPC   H5X 14265   0.090000   1.008000
14266       HAL2   110  DPPC   H5Y 14266   0.090000   1.008000
14267       CTL2   110  DPPC   C36 14267  -0.180000  12.011000
14268       HAL2   110  DPPC   H6X 14268   0.090000   1.008000
14269       HAL2   110  DPPC   H6Y 14269   0.090000   1.008000
14270       CTL2   110  DPPC   C37 14270  -0.180000  12.011000
14271       HAL2   110  DPPC   H7X 14271   0.090000   1.008000
14272       HAL2   110  DPPC   H7Y 14272   0.090000   1.008000
14273       CTL2   110  DPPC   C38 14273  -0.180000  12.011000
14274       HAL2   110  DPPC   H8X 14274   0.090000   1.008000
14275       HAL2   110  DPPC   H8Y 14275   0.090000   1.008000
14276       CTL2   110  DPPC   C39 14276  -0.180000  12.011000
14277       HAL2   110  DPPC   H9X 14277   0.090000   1.008000
14278       HAL2   110  DPPC   H9Y 14278   0.090000   1.008000
14279       CTL2   110  DPPC  C310 14279  -0.180000  12.011000
14280       HAL2   110  DPPC  H10X 14280   0.090000   1.008000
14281       HAL2   110  DPPC  H10Y 14281   0.090000   1.008000
14282       CTL2   110  DPPC  C311 14282  -0.180000  12.011000
14283       HAL2   110  DPPC  H11X 14283   0.090000   1.008000
14284       HAL2   110  DPPC  H11Y 14284   0.090000   1.008000
14285       CTL2   110  DPPC  C312 14285  -0.180000  12.011000
14286       HAL2   110  DPPC  H12X 14286   0.090000   1.008000
14287       HAL2   110  DPPC  H12Y 14287   0.090000   1.008000
14288       CTL2   110  DPPC  C313 14288  -0.180000  12.011000
14289       HAL2   110  DPPC  H13X 14289   0.090000   1.008000
14290       HAL2   110  DPPC  H13Y 14290   0.090000   1.008000
14291       CTL2   110  DPPC  C314 14291  -0.180000  12.011000
14292       HAL2   110  DPPC  H14X 14292   0.090000   1.008000
14293       HAL2   110  DPPC  H14Y 14293   0.090000   1.008000
14294       CTL2   110  DPPC  C315 14294  -0.180000  12.011000
14295       HAL2   110  DPPC  H15X 14295   0.090000   1.008000
14296       HAL2   110  DPPC  H15Y 14296   0.090000   1.008000
14297       CTL3   110  DPPC  C316 14297  -0.270000  12.011000
14298       HAL3   110  DPPC  H16X 14298   0.090000   1.008000
14299       HAL3   110  DPPC  H16Y 14299   0.090000   1.008000
14300       HAL3   110  DPPC  H16Z 14300   0.090000   1.008000
14301        NTL   111  DPPC     N 14301  -0.600000  14.007000
14302       CTL5   111  DPPC   C13 14302  -0.350000  12.011000
14303         HL   111  DPPC  H13A 14303   0.250000   1.008000
14304         HL   111  DPPC  H13B 14304   0.250000   1.008000
14305         HL   111  DPPC  H13C 14305   0.250000   1.008000
14306       CTL5   111  DPPC   C14 14306  -0.350000  12.011000
14307         HL   111  DPPC  H14A 14307   0.250000   1.008000
14308         HL   111  DPPC  H14B 14308   0.250000   1.008000
14309         HL   111  DPPC  H14C 14309   0.250000   1.008000
14310       CTL5   111  DPPC   C15 14310  -0.350000  12.011000
14311         HL   111  DPPC  H15A 14311   0.250000   1.008000
14312         HL   111  DPPC  H15B 14312   0.250000   1.008000
14313         HL   111  DPPC  H15C 14313   0.250000   1.008000
14314       CTL2   111  DPPC   C12 14314  -0.100000  12.011000
14315         HL   111  DPPC  H12A 14315   0.250000   1.008000
14316         HL   111  DPPC  H12B 14316   0.250000   1.008000
14317       CTL2   111  DPPC   C11 14317  -0.080000  12.011000
14318       HAL2   111  DPPC  H11A 14318   0.090000   1.008000
14319       HAL2   111  DPPC  H11B 14319   0.090000   1.008000
14320         PL   111  DPPC     P 14320   1.500000  30.974001
14321        O2L   111  DPPC   O13 14321  -0.780000  15.999400
14322        O2L   111  DPPC   O14 14322  -0.780000  15.999400
14323       OSLP   111  DPPC   O11 14323  -0.570000  15.999400
14324       OSLP   111  DPPC   O12 14324  -0.570000  15.999400
14325       CTL2   111  DPPC    C1 14325  -0.080000  12.011000
14326       HAL2   111  DPPC    HA 14326   0.090000   1.008000
14327       HAL2   111  DPPC    HB 14327   0.090000   1.008000
14328       CTL1   111  DPPC    C2 14328   0.170000  12.011000
14329       HAL1   111  DPPC    HS 14329   0.090000   1.008000
14330        OSL   111  DPPC   O21 14330  -0.490000  15.999400
14331         CL   111  DPPC   C21 14331   0.900000  12.011000
14332        OBL   111  DPPC   O22 14332  -0.630000  15.999400
14333       CTL2   111  DPPC   C22 14333  -0.220000  12.011000
14334       HAL2   111  DPPC   H2R 14334   0.090000   1.008000
14335       HAL2   111  DPPC   H2S 14335   0.090000   1.008000
14336       CTL2   111  DPPC    C3 14336   0.080000  12.011000
14337       HAL2   111  DPPC    HX 14337   0.090000   1.008000
14338       HAL2   111  DPPC    HY 14338   0.090000   1.008000
14339        OSL   111  DPPC   O31 14339  -0.490000  15.999400
14340         CL   111  DPPC   C31 14340   0.900000  12.011000
14341        OBL   111  DPPC   O32 14341  -0.630000  15.999400
14342       CTL2   111  DPPC   C32 14342  -0.220000  12.011000
14343       HAL2   111  DPPC   H2X 14343   0.090000   1.008000
14344       HAL2   111  DPPC   H2Y 14344   0.090000   1.008000
14345       CTL2   111  DPPC   C23 14345  -0.180000  12.011000
14346       HAL2   111  DPPC   H3R 14346   0.090000   1.008000
14347       HAL2   111  DPPC   H3S 14347   0.090000   1.008000
14348       CTL2   111  DPPC   C24 14348  -0.180000  12.011000
14349       HAL2   111  DPPC   H4R 14349   0.090000   1.008000
14350       HAL2   111  DPPC   H4S 14350   0.090000   1.008000
14351       CTL2   111  DPPC   C25 14351  -0.180000  12.011000
14352       HAL2   111  DPPC   H5R 14352   0.090000   1.008000
14353       HAL2   111  DPPC   H5S 14353   0.090000   1.008000
14354       CTL2   111  DPPC   C26 14354  -0.180000  12.011000
14355       HAL2   111  DPPC   H6R 14355   0.090000   1.008000
14356       HAL2   111  DPPC   H6S 14356   0.090000   1.008000
14357       CTL2   111  DPPC   C27 14357  -0.180000  12.011000
14358       HAL2   111  DPPC   H7R 14358   0.090000   1.008000
14359       HAL2   111  DPPC   H7S 14359   0.090000   1.008000
14360       CTL2   111  DPPC   C28 14360  -0.180000  12.011000
14361       HAL2   111  DPPC   H8R 14361   0.090000   1.008000
14362       HAL2   111  DPPC   H8S 14362   0.090000   1.008000
14363       CTL2   111  DPPC   C29 14363  -0.180000  12.011000
14364       HAL2   111  DPPC   H9R 14364   0.090000   1.008000
14365       HAL2   111  DPPC   H9S 14365   0.090000   1.008000
14366       CTL2   111  DPPC  C210 14366  -0.180000  12.011000
14367       HAL2   111  DPPC  H10R 14367   0.090000   1.008000
14368       HAL2   111  DPPC  H10S 14368   0.090000   1.008000
14369       CTL2   111  DPPC  C211 14369  -0.180000  12.011000
14370       HAL2   111  DPPC  H11R 14370   0.090000   1.008000
14371       HAL2   111  DPPC  H11S 14371   0.090000   1.008000
14372       CTL2   111  DPPC  C212 14372  -0.180000  12.011000
14373       HAL2   111  DPPC  H12R 14373   0.090000   1.008000
14374       HAL2   111  DPPC  H12S 14374   0.090000   1.008000
14375       CTL2   111  DPPC  C213 14375  -0.180000  12.011000
14376       HAL2   111  DPPC  H13R 14376   0.090000   1.008000
14377       HAL2   111  DPPC  H13S 14377   0.090000   1.008000
14378       CTL2   111  DPPC  C214 14378  -0.180000  12.011000
14379       HAL2   111  DPPC  H14R 14379   0.090000   1.008000
14380       HAL2   111  DPPC  H14S 14380   0.090000   1.008000
14381       CTL2   111  DPPC  C215 14381  -0.180000  12.011000
14382       HAL2   111  DPPC  H15R 14382   0.090000   1.008000
14383       HAL2   111  DPPC  H15S 14383   0.090000   1.008000
14384       CTL3   111  DPPC  C216 14384  -0.270000  12.011000
14385       HAL3   111  DPPC  H16R 14385   0.090000   1.008000
14386       HAL3   111  DPPC  H16S 14386   0.090000   1.008000
14387       HAL3   111  DPPC  H16T 14387   0.090000   1.008000
14388       CTL2   111  DPPC   C33 14388  -0.180000  12.011000
14389       HAL2   111  DPPC   H3X 14389   0.090000   1.008000
14390       HAL2   111  DPPC   H3Y 14390   0.090000   1.008000
14391       CTL2   111  DPPC   C34 14391  -0.180000  12.011000
14392       HAL2   111  DPPC   H4X 14392   0.090000   1.008000
14393       HAL2   111  DPPC   H4Y 14393   0.090000   1.008000
14394       CTL2   111  DPPC   C35 14394  -0.180000  12.011000
14395       HAL2   111  DPPC   H5X 14395   0.090000   1.008000
14396       HAL2   111  DPPC   H5Y 14396   0.090000   1.008000
14397       CTL2   111  DPPC   C36 14397  -0.180000  12.011000
14398       HAL2   111  DPPC   H6X 14398   0.090000   1.008000
14399       HAL2   111  DPPC   H6Y 14399   0.090000   1.008000
14400       CTL2   111  DPPC   C37 14400  -0.180000  12.011000
14401       HAL2   111  DPPC   H7X 14401   0.090000   1.008000
14402       HAL2   111  DPPC   H7Y 14402   0.090000   1.008000
14403       CTL2   111  DPPC   C38 14403  -0.180000  12.011000
14404       HAL2   111  DPPC   H8X 14404   0.090000   1.008000
14405       HAL2   111  DPPC   H8Y 14405   0.090000   1.008000
14406       CTL2   111  DPPC   C39 14406  -0.180000  12.011000
14407       HAL2   111  DPPC   H9X 14407   0.090000   1.008000
14408       HAL2   111  DPPC   H9Y 14408   0.090000   1.008000
14409       CTL2   111  DPPC  C310 14409  -0.180000  12.011000
14410       HAL2   111  DPPC  H10X 14410   0.090000   1.008000
14411       HAL2   111  DPPC  H10Y 14411   0.090000   1.008000
14412       CTL2   111  DPPC  C311 14412  -0.180000  12.011000
14413       HAL2   111  DPPC  H11X 14413   0.090000   1.008000
14414       HAL2   111  DPPC  H11Y 14414   0.090000   1.008000
14415       CTL2   111  DPPC  C312 14415  -0.180000  12.011000
14416       HAL2   111  DPPC  H12X 14416   0.090000   1.008000
14417       HAL2   111  DPPC  H12Y 14417   0.090000   1.008000
14418       CTL2   111  DPPC  C313 14418  -0.180000  12.011000
14419       HAL2   111  DPPC  H13X 14419   0.090000   1.008000
14420       HAL2   111  DPPC  H13Y 14420   0.090000   1.008000
14421       CTL2   111  DPPC  C314 14421  -0.180000  12.011000
14422       HAL2   111  DPPC  H14X 14422   0.090000   1.008000
14423       HAL2   111  DPPC  H14Y 14423   0.090000   1.008000
14424       CTL2   111  DPPC  C315 14424  -0.180000  12.011000
14425       HAL2   111  DPPC  H15X 14425   0.090000   1.008000
14426       HAL2   111  DPPC  H15Y 14426   0.090000   1.008000
14427       CTL3   111  DPPC  C316 14427  -0.270000  12.011000
14428       HAL3   111  DPPC  H16X 14428   0.090000   1.008000
14429       HAL3   111  DPPC  H16Y 14429   0.090000   1.008000
14430       HAL3   111  DPPC  H16Z 14430   0.090000   1.008000
14431        NTL   112  DPPC     N 14431  -0.600000  14.007000
14432       CTL5   112  DPPC   C13 14432  -0.350000  12.011000
14433         HL   112  DPPC  H13A 14433   0.250000   1.008000
14434         HL   112  DPPC  H13B 14434   0.250000   1.008000
14435         HL   112  DPPC  H13C 14435   0.250000   1.008000
14436       CTL5   112  DPPC   C14 14436  -0.350000  12.011000
14437         HL   112  DPPC  H14A 14437   0.250000   1.008000
14438         HL   112  DPPC  H14B 14438   0.250000   1.008000
14439         HL   112  DPPC  H14C 14439   0.250000   1.008000
14440       CTL5   112  DPPC   C15 14440  -0.350000  12.011000
14441         HL   112  DPPC  H15A 14441   0.250000   1.008000
14442         HL   112  DPPC  H15B 14442   0.250000   1.008000
14443         HL   112  DPPC  H15C 14443   0.250000   1.008000
14444       CTL2   112  DPPC   C12 14444  -0.100000  12.011000
14445         HL   112  DPPC  H12A 14445   0.250000   1.008000
14446         HL   112  DPPC  H12B 14446   0.250000   1.008000
14447       CTL2   112  DPPC   C11 14447  -0.080000  12.011000
14448       HAL2   112  DPPC  H11A 14448   0.090000   1.008000
14449       HAL2   112  DPPC  H11B 14449   0.090000   1.008000
14450         PL   112  DPPC     P 14450   1.500000  30.974001
14451        O2L   112  DPPC   O13 14451  -0.780000  15.999400
14452        O2L   112  DPPC   O14 14452  -0.780000  15.999400
14453       OSLP   112  DPPC   O11 14453  -0.570000  15.999400
14454       OSLP   112  DPPC   O12 14454  -0.570000  15.999400
14455       CTL2   112  DPPC    C1 14455  -0.080000  12.011000
14456       HAL2   112  DPPC    HA 14456   0.090000   1.008000
14457       HAL2   112  DPPC    HB 14457   0.090000   1.008000
14458       CTL1   112  DPPC    C2 14458   0.170000  12.011000
14459       HAL1   112  DPPC    HS 14459   0.090000   1.008000
14460        OSL   112  DPPC   O21 14460  -0.490000  15.999400
14461         CL   112  DPPC   C21 14461   0.900000  12.011000
14462        OBL   112  DPPC   O22 14462  -0.630000  15.999400
14463       CTL2   112  DPPC   C22 14463  -0.220000  12.011000
14464       HAL2   112  DPPC   H2R 14464   0.090000   1.008000
14465       HAL2   112  DPPC   H2S 14465   0.090000   1.008000
14466       CTL2   112  DPPC    C3 14466   0.080000  12.011000
14467       HAL2   112  DPPC    HX 14467   0.090000   1.008000
14468       HAL2   112  DPPC    HY 14468   0.090000   1.008000
14469        OSL   112  DPPC   O31 14469  -0.490000  15.999400
14470         CL   112  DPPC   C31 14470   0.900000  12.011000
14471        OBL   112  DPPC   O32 14471  -0.630000  15.999400
14472       CTL2   112  DPPC   C32 14472  -0.220000  12.011000
14473       HAL2   112  DPPC   H2X 14473   0.090000   1.008000
14474       HAL2   112  DPPC   H2Y 14474   0.090000   1.008000
14475       CTL2   112  DPPC   C23 14475  -0.180000  12.011000
14476       HAL2   112  DPPC   H3R 14476   0.090000   1.008000
14477       HAL2   112  DPPC   H3S 14477   0.090000   1.008000
14478       CTL2   112  DPPC   C24 14478  -0.180000  12.011000
14479       HAL2   112  DPPC   H4R 14479   0.090000   1.008000
14480       HAL2   112  DPPC   H4S 14480   0.090000   1.008000
14481       CTL2   112  DPPC   C25 14481  -0.180000  12.011000
14482       HAL2   112  DPPC   H5R 14482   0.090000   1.008000
14483       HAL2   112  DPPC   H5S 14483   0.090000   1.008000
14484       CTL2   112  DPPC   C26 14484  -0.180000  12.011000
14485       HAL2   112  DPPC   H6R 14485   0.090000   1.008000
14486       HAL2   112  DPPC   H6S 14486   0.090000   1.008000
14487       CTL2   112  DPPC   C27 14487  -0.180000  12.011000
14488       HAL2   112  DPPC   H7R 14488   0.090000   1.008000
14489       HAL2   112  DPPC   H7S 14489   0.090000   1.008000
14490       CTL2   112  DPPC   C28 14490  -0.180000  12.011000
14491       HAL2   112  DPPC   H8R 14491   0.090000   1.008000
14492       HAL2   112  DPPC   H8S 14492   0.090000   1.008000
14493       CTL2   112  DPPC   C29 14493  -0.180000  12.011000
14494       HAL2   112  DPPC   H9R 14494   0.090000   1.008000
14495       HAL2   112  DPPC   H9S 14495   0.090000   1.008000
14496       CTL2   112  DPPC  C210 14496  -0.180000  12.011000
14497       HAL2   112  DPPC  H10R 14497   0.090000   1.008000
14498       HAL2   112  DPPC  H10S 14498   0.090000   1.008000
14499       CTL2   112  DPPC  C211 14499  -0.180000  12.011000
14500       HAL2   112  DPPC  H11R 14500   0.090000   1.008000
14501       HAL2   112  DPPC  H11S 14501   0.090000   1.008000
14502       CTL2   112  DPPC  C212 14502  -0.180000  12.011000
14503       HAL2   112  DPPC  H12R 14503   0.090000   1.008000
14504       HAL2   112  DPPC  H12S 14504   0.090000   1.008000
14505       CTL2   112  DPPC  C213 14505  -0.180000  12.011000
14506       HAL2   112  DPPC  H13R 14506   0.090000   1.008000
14507       HAL2   112  DPPC  H13S 14507   0.090000   1.008000
14508       CTL2   112  DPPC  C214 14508  -0.180000  12.011000
14509       HAL2   112  DPPC  H14R 14509   0.090000   1.008000
14510       HAL2   112  DPPC  H14S 14510   0.090000   1.008000
14511       CTL2   112  DPPC  C215 14511  -0.180000  12.011000
14512       HAL2   112  DPPC  H15R 14512   0.090000   1.008000
14513       HAL2   112  DPPC  H15S 14513   0.090000   1.008000
14514       CTL3   112  DPPC  C216 14514  -0.270000  12.011000
14515       HAL3   112  DPPC  H16R 14515   0.090000   1.008000
14516       HAL3   112  DPPC  H16S 14516   0.090000   1.008000
14517       HAL3   112  DPPC  H16T 14517   0.090000   1.008000
14518       CTL2   112  DPPC   C33 14518  -0.180000  12.011000
14519       HAL2   112  DPPC   H3X 14519   0.090000   1.008000
14520       HAL2   112  DPPC   H3Y 14520   0.090000   1.008000
14521       CTL2   112  DPPC   C34 14521  -0.180000  12.011000
14522       HAL2   112  DPPC   H4X 14522   0.090000   1.008000
14523       HAL2   112  DPPC   H4Y 14523   0.090000   1.008000
14524       CTL2   112  DPPC   C35 14524  -0.180000  12.011000
14525       HAL2   112  DPPC   H5X 14525   0.090000   1.008000
14526       HAL2   112  DPPC   H5Y 14526   0.090000   1.008000
14527       CTL2   112  DPPC   C36 14527  -0.180000  12.011000
14528       HAL2   112  DPPC   H6X 14528   0.090000   1.008000
14529       HAL2   112  DPPC   H6Y 14529   0.090000   1.008000
14530       CTL2   112  DPPC   C37 14530  -0.180000  12.011000
14531       HAL2   112  DPPC   H7X 14531   0.090000   1.008000
14532       HAL2   112  DPPC   H7Y 14532   0.090000   1.008000
14533       CTL2   112  DPPC   C38 14533  -0.180000  12.011000
14534       HAL2   112  DPPC   H8X 14534   0.090000   1.008000
14535       HAL2   112  DPPC   H8Y 14535   0.090000   1.008000
14536       CTL2   112  DPPC   C39 14536  -0.180000  12.011000
14537       HAL2   112  DPPC   H9X 14537   0.090000   1.008000
14538       HAL2   112  DPPC   H9Y 14538   0.090000   1.008000
14539       CTL2   112  DPPC  C310 14539  -0.180000  12.011000
14540       HAL2   112  DPPC  H10X 14540   0.090000   1.008000
14541       HAL2   112  DPPC  H10Y 14541   0.090000   1.008000
14542       CTL2   112  DPPC  C311 14542  -0.180000  12.011000
14543       HAL2   112  DPPC  H11X 14543   0.090000   1.008000
14544       HAL2   112  DPPC  H11Y 14544   0.090000   1.008000
14545       CTL2   112  DPPC  C312 14545  -0.180000  12.011000
14546       HAL2   112  DPPC  H12X 14546   0.090000   1.008000
14547       HAL2   112  DPPC  H12Y 14547   0.090000   1.008000
14548       CTL2   112  DPPC  C313 14548  -0.180000  12.011000
14549       HAL2   112  DPPC  H13X 14549   0.090000   1.008000
14550       HAL2   112  DPPC  H13Y 14550   0.090000   1.008000
14551       CTL2   112  DPPC  C314 14551  -0.180000  12.011000
14552       HAL2   112  DPPC  H14X 14552   0.090000   1.008000
14553       HAL2   112  DPPC  H14Y 14553   0.090000   1.008000
14554       CTL2   112  DPPC  C315 14554  -0.180000  12.011000
14555       HAL2   112  DPPC  H15X 14555   0.090000   1.008000
14556       HAL2   112  DPPC  H15Y 14556   0.090000   1.008000
14557       CTL3   112  DPPC  C316 14557  -0.270000  12.011000
14558       HAL3   112  DPPC  H16X 14558   0.090000   1.008000
14559       HAL3   112  DPPC  H16Y 14559   0.090000   1.008000
14560       HAL3   112  DPPC  H16Z 14560   0.090000   1.008000
14561        NTL   113  DPPC     N 14561  -0.600000  14.007000
14562       CTL5   113  DPPC   C13 14562  -0.350000  12.011000
14563         HL   113  DPPC  H13A 14563   0.250000   1.008000
14564         HL   113  DPPC  H13B 14564   0.250000   1.008000
14565         HL   113  DPPC  H13C 14565   0.250000   1.008000
14566       CTL5   113  DPPC   C14 14566  -0.350000  12.011000
14567         HL   113  DPPC  H14A 14567   0.250000   1.008000
14568         HL   113  DPPC  H14B 14568   0.250000   1.008000
14569         HL   113  DPPC  H14C 14569   0.250000   1.008000
14570       CTL5   113  DPPC   C15 14570  -0.350000  12.011000
14571         HL   113  DPPC  H15A 14571   0.250000   1.008000
14572         HL   113  DPPC  H15B 14572   0.250000   1.008000
14573         HL   113  DPPC  H15C 14573   0.250000   1.008000
14574       CTL2   113  DPPC   C12 14574  -0.100000  12.011000
14575         HL   113  DPPC  H12A 14575   0.250000   1.008000
14576         HL   113  DPPC  H12B 14576   0.250000   1.008000
14577       CTL2   113  DPPC   C11 14577  -0.080000  12.011000
14578       HAL2   113  DPPC  H11A 14578   0.090000   1.008000
14579       HAL2   113  DPPC  H11B 14579   0.090000   1.008000
14580         PL   113  DPPC     P 14580   1.500000  30.974001
14581        O2L   113  DPPC   O13 14581  -0.780000  15.999400
14582        O2L   113  DPPC   O14 14582  -0.780000  15.999400
14583       OSLP   113  DPPC   O11 14583  -0.570000  15.999400
14584       OSLP   113  DPPC   O12 14584  -0.570000  15.999400
14585       CTL2   113  DPPC    C1 14585  -0.080000  12.011000
14586       HAL2   113  DPPC    HA 14586   0.090000   1.008000
14587       HAL2   113  DPPC    HB 14587   0.090000   1.008000
14588       CTL1   113  DPPC    C2 14588   0.170000  12.011000
14589       HAL1   113  DPPC    HS 14589   0.090000   1.008000
14590        OSL   113  DPPC   O21 14590  -0.490000  15.999400
14591         CL   113  DPPC   C21 14591   0.900000  12.011000
14592        OBL   113  DPPC   O22 14592  -0.630000  15.999400
14593       CTL2   113  DPPC   C22 14593  -0.220000  12.011000
14594       HAL2   113  DPPC   H2R 14594   0.090000   1.008000
14595       HAL2   113  DPPC   H2S 14595   0.090000   1.008000
14596       CTL2   113  DPPC    C3 14596   0.080000  12.011000
14597       HAL2   113  DPPC    HX 14597   0.090000   1.008000
14598       HAL2   113  DPPC    HY 14598   0.090000   1.008000
14599        OSL   113  DPPC   O31 14599  -0.490000  15.999400
14600         CL   113  DPPC   C31 14600   0.900000  12.011000
14601        OBL   113  DPPC   O32 14601  -0.630000  15.999400
14602       CTL2   113  DPPC   C32 14602  -0.220000  12.011000
14603       HAL2   113  DPPC   H2X 14603   0.090000   1.008000
14604       HAL2   113  DPPC   H2Y 14604   0.090000   1.008000
14605       CTL2   113  DPPC   C23 14605  -0.180000  12.011000
14606       HAL2   113  DPPC   H3R 14606   0.090000   1.008000
14607       HAL2   113  DPPC   H3S 14607   0.090000   1.008000
14608       CTL2   113  DPPC   C24 14608  -0.180000  12.011000
14609       HAL2   113  DPPC   H4R 14609   0.090000   1.008000
14610       HAL2   113  DPPC   H4S 14610   0.090000   1.008000
14611       CTL2   113  DPPC   C25 14611  -0.180000  12.011000
14612       HAL2   113  DPPC   H5R 14612   0.090000   1.008000
14613       HAL2   113  DPPC   H5S 14613   0.090000   1.008000
14614       CTL2   113  DPPC   C26 14614  -0.180000  12.011000
14615       HAL2   113  DPPC   H6R 14615   0.090000   1.008000
14616       HAL2   113  DPPC   H6S 14616   0.090000   1.008000
14617       CTL2   113  DPPC   C27 14617  -0.180000  12.011000
14618       HAL2   113  DPPC   H7R 14618   0.090000   1.008000
14619       HAL2   113  DPPC   H7S 14619   0.090000   1.008000
14620       CTL2   113  DPPC   C28 14620  -0.180000  12.011000
14621       HAL2   113  DPPC   H8R 14621   0.090000   1.008000
14622       HAL2   113  DPPC   H8S 14622   0.090000   1.008000
14623       CTL2   113  DPPC   C29 14623  -0.180000  12.011000
14624       HAL2   113  DPPC   H9R 14624   0.090000   1.008000
14625       HAL2   113  DPPC   H9S 14625   0.090000   1.008000
14626       CTL2   113  DPPC  C210 14626  -0.180000  12.011000
14627       HAL2   113  DPPC  H10R 14627   0.090000   1.008000
14628       HAL2   113  DPPC  H10S 14628   0.090000   1.008000
14629       CTL2   113  DPPC  C211 14629  -0.180000  12.011000
14630       HAL2   113  DPPC  H11R 14630   0.090000   1.008000
14631       HAL2   113  DPPC  H11S 14631   0.090000   1.008000
14632       CTL2   113  DPPC  C212 14632  -0.180000  12.011000
14633       HAL2   113  DPPC  H12R 14633   0.090000   1.008000
14634       HAL2   113  DPPC  H12S 14634   0.090000   1.008000
14635       CTL2   113  DPPC  C213 14635  -0.180000  12.011000
14636       HAL2   113  DPPC  H13R 14636   0.090000   1.008000
14637       HAL2   113  DPPC  H13S 14637   0.090000   1.008000
14638       CTL2   113  DPPC  C214 14638  -0.180000  12.011000
14639       HAL2   113  DPPC  H14R 14639   0.090000   1.008000
14640       HAL2   113  DPPC  H14S 14640   0.090000   1.008000
14641       CTL2   113  DPPC  C215 14641  -0.180000  12.011000
14642       HAL2   113  DPPC  H15R 14642   0.090000   1.008000
14643       HAL2   113  DPPC  H15S 14643   0.090000   1.008000
14644       CTL3   113  DPPC  C216 14644  -0.270000  12.011000
14645       HAL3   113  DPPC  H16R 14645   0.090000   1.008000
14646       HAL3   113  DPPC  H16S 14646   0.090000   1.008000
14647       HAL3   113  DPPC  H16T 14647   0.090000   1.008000
14648       CTL2   113  DPPC   C33 14648  -0.180000  12.011000
14649       HAL2   113  DPPC   H3X 14649   0.090000   1.008000
14650       HAL2   113  DPPC   H3Y 14650   0.090000   1.008000
14651       CTL2   113  DPPC   C34 14651  -0.180000  12.011000
14652       HAL2   113  DPPC   H4X 14652   0.090000   1.008000
14653       HAL2   113  DPPC   H4Y 14653   0.090000   1.008000
14654       CTL2   113  DPPC   C35 14654  -0.180000  12.011000
14655       HAL2   113  DPPC   H5X 14655   0.090000   1.008000
14656       HAL2   113  DPPC   H5Y 14656   0.090000   1.008000
14657       CTL2   113  DPPC   C36 14657  -0.180000  12.011000
14658       HAL2   113  DPPC   H6X 14658   0.090000   1.008000
14659       HAL2   113  DPPC   H6Y 14659   0.090000   1.008000
14660       CTL2   113  DPPC   C37 14660  -0.180000  12.011000
14661       HAL2   113  DPPC   H7X 14661   0.090000   1.008000
14662       HAL2   113  DPPC   H7Y 14662   0.090000   1.008000
14663       CTL2   113  DPPC   C38 14663  -0.180000  12.011000
14664       HAL2   113  DPPC   H8X 14664   0.090000   1.008000
14665       HAL2   113  DPPC   H8Y 14665   0.090000   1.008000
14666       CTL2   113  DPPC   C39 14666  -0.180000  12.011000
14667       HAL2   113  DPPC   H9X 14667   0.090000   1.008000
14668       HAL2   113  DPPC   H9Y 14668   0.090000   1.008000
14669       CTL2   113  DPPC  C310 14669  -0.180000  12.011000
14670       HAL2   113  DPPC  H10X 14670   0.090000   1.008000
14671       HAL2   113  DPPC  H10Y 14671   0.090000   1.008000
14672       CTL2   113  DPPC  C311 14672  -0.180000  12.011000
14673       HAL2   113  DPPC  H11X 14673   0.090000   1.008000
14674       HAL2   113  DPPC  H11Y 14674   0.090000   1.008000
14675       CTL2   113  DPPC  C312 14675  -0.180000  12.011000
14676       HAL2   113  DPPC  H12X 14676   0.090000   1.008000
14677       HAL2   113  DPPC  H12Y 14677   0.090000   1.008000
14678       CTL2   113  DPPC  C313 14678  -0.180000  12.011000
14679       HAL2   113  DPPC  H13X 14679   0.090000   1.008000
14680       HAL2   113  DPPC  H13Y 14680   0.090000   1.008000
14681       CTL2   113  DPPC  C314 14681  -0.180000  12.011000
14682       HAL2   113  DPPC  H14X 14682   0.090000   1.008000
14683       HAL2   113  DPPC  H14Y 14683   0.090000   1.008000
14684       CTL2   113  DPPC  C315 14684  -0.180000  12.011000
14685       HAL2   113  DPPC  H15X 14685   0.090000   1.008000
14686       HAL2   113  DPPC  H15Y 14686   0.090000   1.008000
14687       CTL3   113  DPPC  C316 14687  -0.270000  12.011000
14688       HAL3   113  DPPC  H16X 14688   0.090000   1.008000
14689       HAL3   113  DPPC  H16Y 14689   0.090000   1.008000
14690       HAL3   113  DPPC  H16Z 14690   0.090000   1.008000
14691        NTL   114  DPPC     N 14691  -0.600000  14.007000
14692       CTL5   114  DPPC   C13 14692  -0.350000  12.011000
14693         HL   114  DPPC  H13A 14693   0.250000   1.008000
14694         HL   114  DPPC  H13B 14694   0.250000   1.008000
14695         HL   114  DPPC  H13C 14695   0.250000   1.008000
14696       CTL5   114  DPPC   C14 14696  -0.350000  12.011000
14697         HL   114  DPPC  H14A 14697   0.250000   1.008000
14698         HL   114  DPPC  H14B 14698   0.250000   1.008000
14699         HL   114  DPPC  H14C 14699   0.250000   1.008000
14700       CTL5   114  DPPC   C15 14700  -0.350000  12.011000
14701         HL   114  DPPC  H15A 14701   0.250000   1.008000
14702         HL   114  DPPC  H15B 14702   0.250000   1.008000
14703         HL   114  DPPC  H15C 14703   0.250000   1.008000
14704       CTL2   114  DPPC   C12 14704  -0.100000  12.011000
14705         HL   114  DPPC  H12A 14705   0.250000   1.008000
14706         HL   114  DPPC  H12B 14706   0.250000   1.008000
14707       CTL2   114  DPPC   C11 14707  -0.080000  12.011000
14708       HAL2   114  DPPC  H11A 14708   0.090000   1.008000
14709       HAL2   114  DPPC  H11B 14709   0.090000   1.008000
14710         PL   114  DPPC     P 14710   1.500000  30.974001
14711        O2L   114  DPPC   O13 14711  -0.780000  15.999400
14712        O2L   114  DPPC   O14 14712  -0.780000  15.999400
14713       OSLP   114  DPPC   O11 14713  -0.570000  15.999400
14714       OSLP   114  DPPC   O12 14714  -0.570000  15.999400
14715       CTL2   114  DPPC    C1 14715  -0.080000  12.011000
14716       HAL2   114  DPPC    HA 14716   0.090000   1.008000
14717       HAL2   114  DPPC    HB 14717   0.090000   1.008000
14718       CTL1   114  DPPC    C2 14718   0.170000  12.011000
14719       HAL1   114  DPPC    HS 14719   0.090000   1.008000
14720        OSL   114  DPPC   O21 14720  -0.490000  15.999400
14721         CL   114  DPPC   C21 14721   0.900000  12.011000
14722        OBL   114  DPPC   O22 14722  -0.630000  15.999400
14723       CTL2   114  DPPC   C22 14723  -0.220000  12.011000
14724       HAL2   114  DPPC   H2R 14724   0.090000   1.008000
14725       HAL2   114  DPPC   H2S 14725   0.090000   1.008000
14726       CTL2   114  DPPC    C3 14726   0.080000  12.011000
14727       HAL2   114  DPPC    HX 14727   0.090000   1.008000
14728       HAL2   114  DPPC    HY 14728   0.090000   1.008000
14729        OSL   114  DPPC   O31 14729  -0.490000  15.999400
14730         CL   114  DPPC   C31 14730   0.900000  12.011000
14731        OBL   114  DPPC   O32 14731  -0.630000  15.999400
14732       CTL2   114  DPPC   C32 14732  -0.220000  12.011000
14733       HAL2   114  DPPC   H2X 14733   0.090000   1.008000
14734       HAL2   114  DPPC   H2Y 14734   0.090000   1.008000
14735       CTL2   114  DPPC   C23 14735  -0.180000  12.011000
14736       HAL2   114  DPPC   H3R 14736   0.090000   1.008000
14737       HAL2   114  DPPC   H3S 14737   0.090000   1.008000
14738       CTL2   114  DPPC   C24 14738  -0.180000  12.011000
14739       HAL2   114  DPPC   H4R 14739   0.090000   1.008000
14740       HAL2   114  DPPC   H4S 14740   0.090000   1.008000
14741       CTL2   114  DPPC   C25 14741  -0.180000  12.011000
14742       HAL2   114  DPPC   H5R 14742   0.090000   1.008000
14743       HAL2   114  DPPC   H5S 14743   0.090000   1.008000
14744       CTL2   114  DPPC   C26 14744  -0.180000  12.011000
14745       HAL2   114  DPPC   H6R 14745   0.090000   1.008000
14746       HAL2   114  DPPC   H6S 14746   0.090000   1.008000
14747       CTL2   114  DPPC   C27 14747  -0.180000  12.011000
14748       HAL2   114  DPPC   H7R 14748   0.090000   1.008000
14749       HAL2   114  DPPC   H7S 14749   0.090000   1.008000
14750       CTL2   114  DPPC   C28 14750  -0.180000  12.011000
14751       HAL2   114  DPPC   H8R 14751   0.090000   1.008000
14752       HAL2   114  DPPC   H8S 14752   0.090000   1.008000
14753       CTL2   114  DPPC   C29 14753  -0.180000  12.011000
14754       HAL2   114  DPPC   H9R 14754   0.090000   1.008000
14755       HAL2   114  DPPC   H9S 14755   0.090000   1.008000
14756       CTL2   114  DPPC  C210 14756  -0.180000  12.011000
14757       HAL2   114  DPPC  H10R 14757   0.090000   1.008000
14758       HAL2   114  DPPC  H10S 14758   0.090000   1.008000
14759       CTL2   114  DPPC  C211 14759  -0.180000  12.011000
14760       HAL2   114  DPPC  H11R 14760   0.090000   1.008000
14761       HAL2   114  DPPC  H11S 14761   0.090000   1.008000
14762       CTL2   114  DPPC  C212 14762  -0.180000  12.011000
14763       HAL2   114  DPPC  H12R 14763   0.090000   1.008000
14764       HAL2   114  DPPC  H12S 14764   0.090000   1.008000
14765       CTL2   114  DPPC  C213 14765  -0.180000  12.011000
14766       HAL2   114  DPPC  H13R 14766   0.090000   1.008000
14767       HAL2   114  DPPC  H13S 14767   0.090000   1.008000
14768       CTL2   114  DPPC  C214 14768  -0.180000  12.011000
14769       HAL2   114  DPPC  H14R 14769   0.090000   1.008000
14770       HAL2   114  DPPC  H14S 14770   0.090000   1.008000
14771       CTL2   114  DPPC  C215 14771  -0.180000  12.011000
14772       HAL2   114  DPPC  H15R 14772   0.090000   1.008000
14773       HAL2   114  DPPC  H15S 14773   0.090000   1.008000
14774       CTL3   114  DPPC  C216 14774  -0.270000  12.011000
14775       HAL3   114  DPPC  H16R 14775   0.090000   1.008000
14776       HAL3   114  DPPC  H16S 14776   0.090000   1.008000
14777       HAL3   114  DPPC  H16T 14777   0.090000   1.008000
14778       CTL2   114  DPPC   C33 14778  -0.180000  12.011000
14779       HAL2   114  DPPC   H3X 14779   0.090000   1.008000
14780       HAL2   114  DPPC   H3Y 14780   0.090000   1.008000
14781       CTL2   114  DPPC   C34 14781  -0.180000  12.011000
14782       HAL2   114  DPPC   H4X 14782   0.090000   1.008000
14783       HAL2   114  DPPC   H4Y 14783   0.090000   1.008000
14784       CTL2   114  DPPC   C35 14784  -0.180000  12.011000
14785       HAL2   114  DPPC   H5X 14785   0.090000   1.008000
14786       HAL2   114  DPPC   H5Y 14786   0.090000   1.008000
14787       CTL2   114  DPPC   C36 14787  -0.180000  12.011000
14788       HAL2   114  DPPC   H6X 14788   0.090000   1.008000
14789       HAL2   114  DPPC   H6Y 14789   0.090000   1.008000
14790       CTL2   114  DPPC   C37 14790  -0.180000  12.011000
14791       HAL2   114  DPPC   H7X 14791   0.090000   1.008000
14792       HAL2   114  DPPC   H7Y 14792   0.090000   1.008000
14793       CTL2   114  DPPC   C38 14793  -0.180000  12.011000
14794       HAL2   114  DPPC   H8X 14794   0.090000   1.008000
14795       HAL2   114  DPPC   H8Y 14795   0.090000   1.008000
14796       CTL2   114  DPPC   C39 14796  -0.180000  12.011000
14797       HAL2   114  DPPC   H9X 14797   0.090000   1.008000
14798       HAL2   114  DPPC   H9Y 14798   0.090000   1.008000
14799       CTL2   114  DPPC  C310 14799  -0.180000  12.011000
14800       HAL2   114  DPPC  H10X 14800   0.090000   1.008000
14801       HAL2   114  DPPC  H10Y 14801   0.090000   1.008000
14802       CTL2   114  DPPC  C311 14802  -0.180000  12.011000
14803       HAL2   114  DPPC  H11X 14803   0.090000   1.008000
14804       HAL2   114  DPPC  H11Y 14804   0.090000   1.008000
14805       CTL2   114  DPPC  C312 14805  -0.180000  12.011000
14806       HAL2   114  DPPC  H12X 14806   0.090000   1.008000
14807       HAL2   114  DPPC  H12Y 14807   0.090000   1.008000
14808       CTL2   114  DPPC  C313 14808  -0.180000  12.011000
14809       HAL2   114  DPPC  H13X 14809   0.090000   1.008000
14810       HAL2   114  DPPC  H13Y 14810   0.090000   1.008000
14811       CTL2   114  DPPC  C314 14811  -0.180000  12.011000
14812       HAL2   114  DPPC  H14X 14812   0.090000   1.008000
14813       HAL2   114  DPPC  H14Y 14813   0.090000   1.008000
14814       CTL2   114  DPPC  C315 14814  -0.180000  12.011000
14815       HAL2   114  DPPC  H15X 14815   0.090000   1.008000
14816       HAL2   114  DPPC  H15Y 14816   0.090000   1.008000
14817       CTL3   114  DPPC  C316 14817  -0.270000  12.011000
14818       HAL3   114  DPPC  H16X 14818   0.090000   1.008000
14819       HAL3   114  DPPC  H16Y 14819   0.090000   1.008000
14820       HAL3   114  DPPC  H16Z 14820   0.090000   1.008000
14821        NTL   115  DPPC     N 14821  -0.600000  14.007000
14822       CTL5   115  DPPC   C13 14822  -0.350000  12.011000
14823         HL   115  DPPC  H13A 14823   0.250000   1.008000
14824         HL   115  DPPC  H13B 14824   0.250000   1.008000
14825         HL   115  DPPC  H13C 14825   0.250000   1.008000
14826       CTL5   115  DPPC   C14 14826  -0.350000  12.011000
14827         HL   115  DPPC  H14A 14827   0.250000   1.008000
14828         HL   115  DPPC  H14B 14828   0.250000   1.008000
14829         HL   115  DPPC  H14C 14829   0.250000   1.008000
14830       CTL5   115  DPPC   C15 14830  -0.350000  12.011000
14831         HL   115  DPPC  H15A 14831   0.250000   1.008000
14832         HL   115  DPPC  H15B 14832   0.250000   1.008000
14833         HL   115  DPPC  H15C 14833   0.250000   1.008000
14834       CTL2   115  DPPC   C12 14834  -0.100000  12.011000
14835         HL   115  DPPC  H12A 14835   0.250000   1.008000
14836         HL   115  DPPC  H12B 14836   0.250000   1.008000
14837       CTL2   115  DPPC   C11 14837  -0.080000  12.011000
14838       HAL2   115  DPPC  H11A 14838   0.090000   1.008000
14839       HAL2   115  DPPC  H11B 14839   0.090000   1.008000
14840         PL   115  DPPC     P 14840   1.500000  30.974001
14841        O2L   115  DPPC   O13 14841  -0.780000  15.999400
14842        O2L   115  DPPC   O14 14842  -0.780000  15.999400
14843       OSLP   115  DPPC   O11 14843  -0.570000  15.999400
14844       OSLP   115  DPPC   O12 14844  -0.570000  15.999400
14845       CTL2   115  DPPC    C1 14845  -0.080000  12.011000
14846       HAL2   115  DPPC    HA 14846   0.090000   1.008000
14847       HAL2   115  DPPC    HB 14847   0.090000   1.008000
14848       CTL1   115  DPPC    C2 14848   0.170000  12.011000
14849       HAL1   115  DPPC    HS 14849   0.090000   1.008000
14850        OSL   115  DPPC   O21 14850  -0.490000  15.999400
14851         CL   115  DPPC   C21 14851   0.900000  12.011000
14852        OBL   115  DPPC   O22 14852  -0.630000  15.999400
14853       CTL2   115  DPPC   C22 14853  -0.220000  12.011000
14854       HAL2   115  DPPC   H2R 14854   0.090000   1.008000
14855       HAL2   115  DPPC   H2S 14855   0.090000   1.008000
14856       CTL2   115  DPPC    C3 14856   0.080000  12.011000
14857       HAL2   115  DPPC    HX 14857   0.090000   1.008000
14858       HAL2   115  DPPC    HY 14858   0.090000   1.008000
14859        OSL   115  DPPC   O31 14859  -0.490000  15.999400
14860         CL   115  DPPC   C31 14860   0.900000  12.011000
14861        OBL   115  DPPC   O32 14861  -0.630000  15.999400
14862       CTL2   115  DPPC   C32 14862  -0.220000  12.011000
14863       HAL2   115  DPPC   H2X 14863   0.090000   1.008000
14864       HAL2   115  DPPC   H2Y 14864   0.090000   1.008000
14865       CTL2   115  DPPC   C23 14865  -0.180000  12.011000
14866       HAL2   115  DPPC   H3R 14866   0.090000   1.008000
14867       HAL2   115  DPPC   H3S 14867   0.090000   1.008000
14868       CTL2   115  DPPC   C24 14868  -0.180000  12.011000
14869       HAL2   115  DPPC   H4R 14869   0.090000   1.008000
14870       HAL2   115  DPPC   H4S 14870   0.090000   1.008000
14871       CTL2   115  DPPC   C25 14871  -0.180000  12.011000
14872       HAL2   115  DPPC   H5R 14872   0.090000   1.008000
14873       HAL2   115  DPPC   H5S 14873   0.090000   1.008000
14874       CTL2   115  DPPC   C26 14874  -0.180000  12.011000
14875       HAL2   115  DPPC   H6R 14875   0.090000   1.008000
14876       HAL2   115  DPPC   H6S 14876   0.090000   1.008000
14877       CTL2   115  DPPC   C27 14877  -0.180000  12.011000
14878       HAL2   115  DPPC   H7R 14878   0.090000   1.008000
14879       HAL2   115  DPPC   H7S 14879   0.090000   1.008000
14880       CTL2   115  DPPC   C28 14880  -0.180000  12.011000
14881       HAL2   115  DPPC   H8R 14881   0.090000   1.008000
14882       HAL2   115  DPPC   H8S 14882   0.090000   1.008000
14883       CTL2   115  DPPC   C29 14883  -0.180000  12.011000
14884       HAL2   115  DPPC   H9R 14884   0.090000   1.008000
14885       HAL2   115  DPPC   H9S 14885   0.090000   1.008000
14886       CTL2   115  DPPC  C210 14886  -0.180000  12.011000
14887       HAL2   115  DPPC  H10R 14887   0.090000   1.008000
14888       HAL2   115  DPPC  H10S 14888   0.090000   1.008000
14889       CTL2   115  DPPC  C211 14889  -0.180000  12.011000
14890       HAL2   115  DPPC  H11R 14890   0.090000   1.008000
14891       HAL2   115  DPPC  H11S 14891   0.090000   1.008000
14892       CTL2   115  DPPC  C212 14892  -0.180000  12.011000
14893       HAL2   115  DPPC  H12R 14893   0.090000   1.008000
14894       HAL2   115  DPPC  H12S 14894   0.090000   1.008000
14895       CTL2   115  DPPC  C213 14895  -0.180000  12.011000
14896       HAL2   115  DPPC  H13R 14896   0.090000   1.008000
14897       HAL2   115  DPPC  H13S 14897   0.090000   1.008000
14898       CTL2   115  DPPC  C214 14898  -0.180000  12.011000
14899       HAL2   115  DPPC  H14R 14899   0.090000   1.008000
14900       HAL2   115  DPPC  H14S 14900   0.090000   1.008000
14901       CTL2   115  DPPC  C215 14901  -0.180000  12.011000
14902       HAL2   115  DPPC  H15R 14902   0.090000   1.008000
14903       HAL2   115  DPPC  H15S 14903   0.090000   1.008000
14904       CTL3   115  DPPC  C216 14904  -0.270000  12.011000
14905       HAL3   115  DPPC  H16R 14905   0.090000   1.008000
14906       HAL3   115  DPPC  H16S 14906   0.090000   1.008000
14907       HAL3   115  DPPC  H16T 14907   0.090000   1.008000
14908       CTL2   115  DPPC   C33 14908  -0.180000  12.011000
14909       HAL2   115  DPPC   H3X 14909   0.090000   1.008000
14910       HAL2   115  DPPC   H3Y 14910   0.090000   1.008000
14911       CTL2   115  DPPC   C34 14911  -0.180000  12.011000
14912       HAL2   115  DPPC   H4X 14912   0.090000   1.008000
14913       HAL2   115  DPPC   H4Y 14913   0.090000   1.008000
14914       CTL2   115  DPPC   C35 14914  -0.180000  12.011000
14915       HAL2   115  DPPC   H5X 14915   0.090000   1.008000
14916       HAL2   115  DPPC   H5Y 14916   0.090000   1.008000
14917       CTL2   115  DPPC   C36 14917  -0.180000  12.011000
14918       HAL2   115  DPPC   H6X 14918   0.090000   1.008000
14919       HAL2   115  DPPC   H6Y 14919   0.090000   1.008000
14920       CTL2   115  DPPC   C37 14920  -0.180000  12.011000
14921       HAL2   115  DPPC   H7X 14921   0.090000   1.008000
14922       HAL2   115  DPPC   H7Y 14922   0.090000   1.008000
14923       CTL2   115  DPPC   C38 14923  -0.180000  12.011000
14924       HAL2   115  DPPC   H8X 14924   0.090000   1.008000
14925       HAL2   115  DPPC   H8Y 14925   0.090000   1.008000
14926       CTL2   115  DPPC   C39 14926  -0.180000  12.011000
14927       HAL2   115  DPPC   H9X 14927   0.090000   1.008000
14928       HAL2   115  DPPC   H9Y 14928   0.090000   1.008000
14929       CTL2   115  DPPC  C310 14929  -0.180000  12.011000
14930       HAL2   115  DPPC  H10X 14930   0.090000   1.008000
14931       HAL2   115  DPPC  H10Y 14931   0.090000   1.008000
14932       CTL2   115  DPPC  C311 14932  -0.180000  12.011000
14933       HAL2   115  DPPC  H11X 14933   0.090000   1.008000
14934       HAL2   115  DPPC  H11Y 14934   0.090000   1.008000
14935       CTL2   115  DPPC  C312 14935  -0.180000  12.011000
14936       HAL2   115  DPPC  H12X 14936   0.090000   1.008000
14937       HAL2   115  DPPC  H12Y 14937   0.090000   1.008000
14938       CTL2   115  DPPC  C313 14938  -0.180000  12.011000
14939       HAL2   115  DPPC  H13X 14939   0.090000   1.008000
14940       HAL2   115  DPPC  H13Y 14940   0.090000   1.008000
14941       CTL2   115  DPPC  C314 14941  -0.180000  12.011000
14942       HAL2   115  DPPC  H14X 14942   0.090000   1.008000
14943       HAL2   115  DPPC  H14Y 14943   0.090000   1.008000
14944       CTL2   115  DPPC  C315 14944  -0.180000  12.011000
14945       HAL2   115  DPPC  H15X 14945   0.090000   1.008000
14946       HAL2   115  DPPC  H15Y 14946   0.090000   1.008000
14947       CTL3   115  DPPC  C316 14947  -0.270000  12.011000
14948       HAL3   115  DPPC  H16X 14948   0.090000   1.008000
14949       HAL3   115  DPPC  H16Y 14949   0.090000   1.008000
14950       HAL3   115  DPPC  H16Z 14950   0.090000   1.008000
14951        NTL   116  DPPC     N 14951  -0.600000  14.007000
14952       CTL5   116  DPPC   C13 14952  -0.350000  12.011000
14953         HL   116  DPPC  H13A 14953   0.250000   1.008000
14954         HL   116  DPPC  H13B 14954   0.250000   1.008000
14955         HL   116  DPPC  H13C 14955   0.250000   1.008000
14956       CTL5   116  DPPC   C14 14956  -0.350000  12.011000
14957         HL   116  DPPC  H14A 14957   0.250000   1.008000
14958         HL   116  DPPC  H14B 14958   0.250000   1.008000
14959         HL   116  DPPC  H14C 14959   0.250000   1.008000
14960       CTL5   116  DPPC   C15 14960  -0.350000  12.011000
14961         HL   116  DPPC  H15A 14961   0.250000   1.008000
14962         HL   116  DPPC  H15B 14962   0.250000   1.008000
14963         HL   116  DPPC  H15C 14963   0.250000   1.008000
14964       CTL2   116  DPPC   C12 14964  -0.100000  12.011000
14965         HL   116  DPPC  H12A 14965   0.250000   1.008000
14966         HL   116  DPPC  H12B 14966   0.250000   1.008000
14967       CTL2   116  DPPC   C11 14967  -0.080000  12.011000
14968       HAL2   116  DPPC  H11A 14968   0.090000   1.008000
14969       HAL2   116  DPPC  H11B 14969   0.090000   1.008000
14970         PL   116  DPPC     P 14970   1.500000  30.974001
14971        O2L   116  DPPC   O13 14971  -0.780000  15.999400
14972        O2L   116  DPPC   O14 14972  -0.780000  15.999400
14973       OSLP   116  DPPC   O11 14973  -0.570000  15.999400
14974       OSLP   116  DPPC   O12 14974  -0.570000  15.999400
14975       CTL2   116  DPPC    C1 14975  -0.080000  12.011000
14976       HAL2   116  DPPC    HA 14976   0.090000   1.008000
14977       HAL2   116  DPPC    HB 14977   0.090000   1.008000
14978       CTL1   116  DPPC    C2 14978   0.170000  12.011000
14979       HAL1   116  DPPC    HS 14979   0.090000   1.008000
14980        OSL   116  DPPC   O21 14980  -0.490000  15.999400
14981         CL   116  DPPC   C21 14981   0.900000  12.011000
14982        OBL   116  DPPC   O22 14982  -0.630000  15.999400
14983       CTL2   116  DPPC   C22 14983  -0.220000  12.011000
14984       HAL2   116  DPPC   H2R 14984   0.090000   1.008000
14985       HAL2   116  DPPC   H2S 14985   0.090000   1.008000
14986       CTL2   116  DPPC    C3 14986   0.080000  12.011000
14987       HAL2   116  DPPC    HX 14987   0.090000   1.008000
14988       HAL2   116  DPPC    HY 14988   0.090000   1.008000
14989        OSL   116  DPPC   O31 14989  -0.490000  15.999400
14990         CL   116  DPPC   C31 14990   0.900000  12.011000
14991        OBL   116  DPPC   O32 14991  -0.630000  15.999400
14992       CTL2   116  DPPC   C32 14992  -0.220000  12.011000
14993       HAL2   116  DPPC   H2X 14993   0.090000   1.008000
14994       HAL2   116  DPPC   H2Y 14994   0.090000   1.008000
14995       CTL2   116  DPPC   C23 14995  -0.180000  12.011000
14996       HAL2   116  DPPC   H3R 14996   0.090000   1.008000
14997       HAL2   116  DPPC   H3S 14997   0.090000   1.008000
14998       CTL2   116  DPPC   C24 14998  -0.180000  12.011000
14999       HAL2   116  DPPC   H4R 14999   0.090000   1.008000
15000       HAL2   116  DPPC   H4S 15000   0.090000   1.008000
15001       CTL2   116  DPPC   C25 15001  -0.180000  12.011000
15002       HAL2   116  DPPC   H5R 15002   0.090000   1.008000
15003       HAL2   116  DPPC   H5S 15003   0.090000   1.008000
15004       CTL2   116  DPPC   C26 15004  -0.180000  12.011000
15005       HAL2   116  DPPC   H6R 15005   0.090000   1.008000
15006       HAL2   116  DPPC   H6S 15006   0.090000   1.008000
15007       CTL2   116  DPPC   C27 15007  -0.180000  12.011000
15008       HAL2   116  DPPC   H7R 15008   0.090000   1.008000
15009       HAL2   116  DPPC   H7S 15009   0.090000   1.008000
15010       CTL2   116  DPPC   C28 15010  -0.180000  12.011000
15011       HAL2   116  DPPC   H8R 15011   0.090000   1.008000
15012       HAL2   116  DPPC   H8S 15012   0.090000   1.008000
15013       CTL2   116  DPPC   C29 15013  -0.180000  12.011000
15014       HAL2   116  DPPC   H9R 15014   0.090000   1.008000
15015       HAL2   116  DPPC   H9S 15015   0.090000   1.008000
15016       CTL2   116  DPPC  C210 15016  -0.180000  12.011000
15017       HAL2   116  DPPC  H10R 15017   0.090000   1.008000
15018       HAL2   116  DPPC  H10S 15018   0.090000   1.008000
15019       CTL2   116  DPPC  C211 15019  -0.180000  12.011000
15020       HAL2   116  DPPC  H11R 15020   0.090000   1.008000
15021       HAL2   116  DPPC  H11S 15021   0.090000   1.008000
15022       CTL2   116  DPPC  C212 15022  -0.180000  12.011000
15023       HAL2   116  DPPC  H12R 15023   0.090000   1.008000
15024       HAL2   116  DPPC  H12S 15024   0.090000   1.008000
15025       CTL2   116  DPPC  C213 15025  -0.180000  12.011000
15026       HAL2   116  DPPC  H13R 15026   0.090000   1.008000
15027       HAL2   116  DPPC  H13S 15027   0.090000   1.008000
15028       CTL2   116  DPPC  C214 15028  -0.180000  12.011000
15029       HAL2   116  DPPC  H14R 15029   0.090000   1.008000
15030       HAL2   116  DPPC  H14S 15030   0.090000   1.008000
15031       CTL2   116  DPPC  C215 15031  -0.180000  12.011000
15032       HAL2   116  DPPC  H15R 15032   0.090000   1.008000
15033       HAL2   116  DPPC  H15S 15033   0.090000   1.008000
15034       CTL3   116  DPPC  C216 15034  -0.270000  12.011000
15035       HAL3   116  DPPC  H16R 15035   0.090000   1.008000
15036       HAL3   116  DPPC  H16S 15036   0.090000   1.008000
15037       HAL3   116  DPPC  H16T 15037   0.090000   1.008000
15038       CTL2   116  DPPC   C33 15038  -0.180000  12.011000
15039       HAL2   116  DPPC   H3X 15039   0.090000   1.008000
15040       HAL2   116  DPPC   H3Y 15040   0.090000   1.008000
15041       CTL2   116  DPPC   C34 15041  -0.180000  12.011000
15042       HAL2   116  DPPC   H4X 15042   0.090000   1.008000
15043       HAL2   116  DPPC   H4Y 15043   0.090000   1.008000
15044       CTL2   116  DPPC   C35 15044  -0.180000  12.011000
15045       HAL2   116  DPPC   H5X 15045   0.090000   1.008000
15046       HAL2   116  DPPC   H5Y 15046   0.090000   1.008000
15047       CTL2   116  DPPC   C36 15047  -0.180000  12.011000
15048       HAL2   116  DPPC   H6X 15048   0.090000   1.008000
15049       HAL2   116  DPPC   H6Y 15049   0.090000   1.008000
15050       CTL2   116  DPPC   C37 15050  -0.180000  12.011000
15051       HAL2   116  DPPC   H7X 15051   0.090000   1.008000
15052       HAL2   116  DPPC   H7Y 15052   0.090000   1.008000
15053       CTL2   116  DPPC   C38 15053  -0.180000  12.011000
15054       HAL2   116  DPPC   H8X 15054   0.090000   1.008000
15055       HAL2   116  DPPC   H8Y 15055   0.090000   1.008000
15056       CTL2   116  DPPC   C39 15056  -0.180000  12.011000
15057       HAL2   116  DPPC   H9X 15057   0.090000   1.008000
15058       HAL2   116  DPPC   H9Y 15058   0.090000   1.008000
15059       CTL2   116  DPPC  C310 15059  -0.180000  12.011000
15060       HAL2   116  DPPC  H10X 15060   0.090000   1.008000
15061       HAL2   116  DPPC  H10Y 15061   0.090000   1.008000
15062       CTL2   116  DPPC  C311 15062  -0.180000  12.011000
15063       HAL2   116  DPPC  H11X 15063   0.090000   1.008000
15064       HAL2   116  DPPC  H11Y 15064   0.090000   1.008000
15065       CTL2   116  DPPC  C312 15065  -0.180000  12.011000
15066       HAL2   116  DPPC  H12X 15066   0.090000   1.008000
15067       HAL2   116  DPPC  H12Y 15067   0.090000   1.008000
15068       CTL2   116  DPPC  C313 15068  -0.180000  12.011000
15069       HAL2   116  DPPC  H13X 15069   0.090000   1.008000
15070       HAL2   116  DPPC  H13Y 15070   0.090000   1.008000
15071       CTL2   116  DPPC  C314 15071  -0.180000  12.011000
15072       HAL2   116  DPPC  H14X 15072   0.090000   1.008000
15073       HAL2   116  DPPC  H14Y 15073   0.090000   1.008000
15074       CTL2   116  DPPC  C315 15074  -0.180000  12.011000
15075       HAL2   116  DPPC  H15X 15075   0.090000   1.008000
15076       HAL2   116  DPPC  H15Y 15076   0.090000   1.008000
15077       CTL3   116  DPPC  C316 15077  -0.270000  12.011000
15078       HAL3   116  DPPC  H16X 15078   0.090000   1.008000
15079       HAL3   116  DPPC  H16Y 15079   0.090000   1.008000
15080       HAL3   116  DPPC  H16Z 15080   0.090000   1.008000
15081        NTL   117  DPPC     N 15081  -0.600000  14.007000
15082       CTL5   117  DPPC   C13 15082  -0.350000  12.011000
15083         HL   117  DPPC  H13A 15083   0.250000   1.008000
15084         HL   117  DPPC  H13B 15084   0.250000   1.008000
15085         HL   117  DPPC  H13C 15085   0.250000   1.008000
15086       CTL5   117  DPPC   C14 15086  -0.350000  12.011000
15087         HL   117  DPPC  H14A 15087   0.250000   1.008000
15088         HL   117  DPPC  H14B 15088   0.250000   1.008000
15089         HL   117  DPPC  H14C 15089   0.250000   1.008000
15090       CTL5   117  DPPC   C15 15090  -0.350000  12.011000
15091         HL   117  DPPC  H15A 15091   0.250000   1.008000
15092         HL   117  DPPC  H15B 15092   0.250000   1.008000
15093         HL   117  DPPC  H15C 15093   0.250000   1.008000
15094       CTL2   117  DPPC   C12 15094  -0.100000  12.011000
15095         HL   117  DPPC  H12A 15095   0.250000   1.008000
15096         HL   117  DPPC  H12B 15096   0.250000   1.008000
15097       CTL2   117  DPPC   C11 15097  -0.080000  12.011000
15098       HAL2   117  DPPC  H11A 15098   0.090000   1.008000
15099       HAL2   117  DPPC  H11B 15099   0.090000   1.008000
15100         PL   117  DPPC     P 15100   1.500000  30.974001
15101        O2L   117  DPPC   O13 15101  -0.780000  15.999400
15102        O2L   117  DPPC   O14 15102  -0.780000  15.999400
15103       OSLP   117  DPPC   O11 15103  -0.570000  15.999400
15104       OSLP   117  DPPC   O12 15104  -0.570000  15.999400
15105       CTL2   117  DPPC    C1 15105  -0.080000  12.011000
15106       HAL2   117  DPPC    HA 15106   0.090000   1.008000
15107       HAL2   117  DPPC    HB 15107   0.090000   1.008000
15108       CTL1   117  DPPC    C2 15108   0.170000  12.011000
15109       HAL1   117  DPPC    HS 15109   0.090000   1.008000
15110        OSL   117  DPPC   O21 15110  -0.490000  15.999400
15111         CL   117  DPPC   C21 15111   0.900000  12.011000
15112        OBL   117  DPPC   O22 15112  -0.630000  15.999400
15113       CTL2   117  DPPC   C22 15113  -0.220000  12.011000
15114       HAL2   117  DPPC   H2R 15114   0.090000   1.008000
15115       HAL2   117  DPPC   H2S 15115   0.090000   1.008000
15116       CTL2   117  DPPC    C3 15116   0.080000  12.011000
15117       HAL2   117  DPPC    HX 15117   0.090000   1.008000
15118       HAL2   117  DPPC    HY 15118   0.090000   1.008000
15119        OSL   117  DPPC   O31 15119  -0.490000  15.999400
15120         CL   117  DPPC   C31 15120   0.900000  12.011000
15121        OBL   117  DPPC   O32 15121  -0.630000  15.999400
15122       CTL2   117  DPPC   C32 15122  -0.220000  12.011000
15123       HAL2   117  DPPC   H2X 15123   0.090000   1.008000
15124       HAL2   117  DPPC   H2Y 15124   0.090000   1.008000
15125       CTL2   117  DPPC   C23 15125  -0.180000  12.011000
15126       HAL2   117  DPPC   H3R 15126   0.090000   1.008000
15127       HAL2   117  DPPC   H3S 15127   0.090000   1.008000
15128       CTL2   117  DPPC   C24 15128  -0.180000  12.011000
15129       HAL2   117  DPPC   H4R 15129   0.090000   1.008000
15130       HAL2   117  DPPC   H4S 15130   0.090000   1.008000
15131       CTL2   117  DPPC   C25 15131  -0.180000  12.011000
15132       HAL2   117  DPPC   H5R 15132   0.090000   1.008000
15133       HAL2   117  DPPC   H5S 15133   0.090000   1.008000
15134       CTL2   117  DPPC   C26 15134  -0.180000  12.011000
15135       HAL2   117  DPPC   H6R 15135   0.090000   1.008000
15136       HAL2   117  DPPC   H6S 15136   0.090000   1.008000
15137       CTL2   117  DPPC   C27 15137  -0.180000  12.011000
15138       HAL2   117  DPPC   H7R 15138   0.090000   1.008000
15139       HAL2   117  DPPC   H7S 15139   0.090000   1.008000
15140       CTL2   117  DPPC   C28 15140  -0.180000  12.011000
15141       HAL2   117  DPPC   H8R 15141   0.090000   1.008000
15142       HAL2   117  DPPC   H8S 15142   0.090000   1.008000
15143       CTL2   117  DPPC   C29 15143  -0.180000  12.011000
15144       HAL2   117  DPPC   H9R 15144   0.090000   1.008000
15145       HAL2   117  DPPC   H9S 15145   0.090000   1.008000
15146       CTL2   117  DPPC  C210 15146  -0.180000  12.011000
15147       HAL2   117  DPPC  H10R 15147   0.090000   1.008000
15148       HAL2   117  DPPC  H10S 15148   0.090000   1.008000
15149       CTL2   117  DPPC  C211 15149  -0.180000  12.011000
15150       HAL2   117  DPPC  H11R 15150   0.090000   1.008000
15151       HAL2   117  DPPC  H11S 15151   0.090000   1.008000
15152       CTL2   117  DPPC  C212 15152  -0.180000  12.011000
15153       HAL2   117  DPPC  H12R 15153   0.090000   1.008000
15154       HAL2   117  DPPC  H12S 15154   0.090000   1.008000
15155       CTL2   117  DPPC  C213 15155  -0.180000  12.011000
15156       HAL2   117  DPPC  H13R 15156   0.090000   1.008000
15157       HAL2   117  DPPC  H13S 15157   0.090000   1.008000
15158       CTL2   117  DPPC  C214 15158  -0.180000  12.011000
15159       HAL2   117  DPPC  H14R 15159   0.090000   1.008000
15160       HAL2   117  DPPC  H14S 15160   0.090000   1.008000
15161       CTL2   117  DPPC  C215 15161  -0.180000  12.011000
15162       HAL2   117  DPPC  H15R 15162   0.090000   1.008000
15163       HAL2   117  DPPC  H15S 15163   0.090000   1.008000
15164       CTL3   117  DPPC  C216 15164  -0.270000  12.011000
15165       HAL3   117  DPPC  H16R 15165   0.090000   1.008000
15166       HAL3   117  DPPC  H16S 15166   0.090000   1.008000
15167       HAL3   117  DPPC  H16T 15167   0.090000   1.008000
15168       CTL2   117  DPPC   C33 15168  -0.180000  12.011000
15169       HAL2   117  DPPC   H3X 15169   0.090000   1.008000
15170       HAL2   117  DPPC   H3Y 15170   0.090000   1.008000
15171       CTL2   117  DPPC   C34 15171  -0.180000  12.011000
15172       HAL2   117  DPPC   H4X 15172   0.090000   1.008000
15173       HAL2   117  DPPC   H4Y 15173   0.090000   1.008000
15174       CTL2   117  DPPC   C35 15174  -0.180000  12.011000
15175       HAL2   117  DPPC   H5X 15175   0.090000   1.008000
15176       HAL2   117  DPPC   H5Y 15176   0.090000   1.008000
15177       CTL2   117  DPPC   C36 15177  -0.180000  12.011000
15178       HAL2   117  DPPC   H6X 15178   0.090000   1.008000
15179       HAL2   117  DPPC   H6Y 15179   0.090000   1.008000
15180       CTL2   117  DPPC   C37 15180  -0.180000  12.011000
15181       HAL2   117  DPPC   H7X 15181   0.090000   1.008000
15182       HAL2   117  DPPC   H7Y 15182   0.090000   1.008000
15183       CTL2   117  DPPC   C38 15183  -0.180000  12.011000
15184       HAL2   117  DPPC   H8X 15184   0.090000   1.008000
15185       HAL2   117  DPPC   H8Y 15185   0.090000   1.008000
15186       CTL2   117  DPPC   C39 15186  -0.180000  12.011000
15187       HAL2   117  DPPC   H9X 15187   0.090000   1.008000
15188       HAL2   117  DPPC   H9Y 15188   0.090000   1.008000
15189       CTL2   117  DPPC  C310 15189  -0.180000  12.011000
15190       HAL2   117  DPPC  H10X 15190   0.090000   1.008000
15191       HAL2   117  DPPC  H10Y 15191   0.090000   1.008000
15192       CTL2   117  DPPC  C311 15192  -0.180000  12.011000
15193       HAL2   117  DPPC  H11X 15193   0.090000   1.008000
15194       HAL2   117  DPPC  H11Y 15194   0.090000   1.008000
15195       CTL2   117  DPPC  C312 15195  -0.180000  12.011000
15196       HAL2   117  DPPC  H12X 15196   0.090000   1.008000
15197       HAL2   117  DPPC  H12Y 15197   0.090000   1.008000
15198       CTL2   117  DPPC  C313 15198  -0.180000  12.011000
15199       HAL2   117  DPPC  H13X 15199   0.090000   1.008000
15200       HAL2   117  DPPC  H13Y 15200   0.090000   1.008000
15201       CTL2   117  DPPC  C314 15201  -0.180000  12.011000
15202       HAL2   117  DPPC  H14X 15202   0.090000   1.008000
15203       HAL2   117  DPPC  H14Y 15203   0.090000   1.008000
15204       CTL2   117  DPPC  C315 15204  -0.180000  12.011000
15205       HAL2   117  DPPC  H15X 15205   0.090000   1.008000
15206       HAL2   117  DPPC  H15Y 15206   0.090000   1.008000
15207       CTL3   117  DPPC  C316 15207  -0.270000  12.011000
15208       HAL3   117  DPPC  H16X 15208   0.090000   1.008000
15209       HAL3   117  DPPC  H16Y 15209   0.090000   1.008000
15210       HAL3   117  DPPC  H16Z 15210   0.090000   1.008000
15211        NTL   118  DPPC     N 15211  -0.600000  14.007000
15212       CTL5   118  DPPC   C13 15212  -0.350000  12.011000
15213         HL   118  DPPC  H13A 15213   0.250000   1.008000
15214         HL   118  DPPC  H13B 15214   0.250000   1.008000
15215         HL   118  DPPC  H13C 15215   0.250000   1.008000
15216       CTL5   118  DPPC   C14 15216  -0.350000  12.011000
15217         HL   118  DPPC  H14A 15217   0.250000   1.008000
15218         HL   118  DPPC  H14B 15218   0.250000   1.008000
15219         HL   118  DPPC  H14C 15219   0.250000   1.008000
15220       CTL5   118  DPPC   C15 15220  -0.350000  12.011000
15221         HL   118  DPPC  H15A 15221   0.250000   1.008000
15222         HL   118  DPPC  H15B 15222   0.250000   1.008000
15223         HL   118  DPPC  H15C 15223   0.250000   1.008000
15224       CTL2   118  DPPC   C12 15224  -0.100000  12.011000
15225         HL   118  DPPC  H12A 15225   0.250000   1.008000
15226         HL   118  DPPC  H12B 15226   0.250000   1.008000
15227       CTL2   118  DPPC   C11 15227  -0.080000  12.011000
15228       HAL2   118  DPPC  H11A 15228   0.090000   1.008000
15229       HAL2   118  DPPC  H11B 15229   0.090000   1.008000
15230         PL   118  DPPC     P 15230   1.500000  30.974001
15231        O2L   118  DPPC   O13 15231  -0.780000  15.999400
15232        O2L   118  DPPC   O14 15232  -0.780000  15.999400
15233       OSLP   118  DPPC   O11 15233  -0.570000  15.999400
15234       OSLP   118  DPPC   O12 15234  -0.570000  15.999400
15235       CTL2   118  DPPC    C1 15235  -0.080000  12.011000
15236       HAL2   118  DPPC    HA 15236   0.090000   1.008000
15237       HAL2   118  DPPC    HB 15237   0.090000   1.008000
15238       CTL1   118  DPPC    C2 15238   0.170000  12.011000
15239       HAL1   118  DPPC    HS 15239   0.090000   1.008000
15240        OSL   118  DPPC   O21 15240  -0.490000  15.999400
15241         CL   118  DPPC   C21 15241   0.900000  12.011000
15242        OBL   118  DPPC   O22 15242  -0.630000  15.999400
15243       CTL2   118  DPPC   C22 15243  -0.220000  12.011000
15244       HAL2   118  DPPC   H2R 15244   0.090000   1.008000
15245       HAL2   118  DPPC   H2S 15245   0.090000   1.008000
15246       CTL2   118  DPPC    C3 15246   0.080000  12.011000
15247       HAL2   118  DPPC    HX 15247   0.090000   1.008000
15248       HAL2   118  DPPC    HY 15248   0.090000   1.008000
15249        OSL   118  DPPC   O31 15249  -0.490000  15.999400
15250         CL   118  DPPC   C31 15250   0.900000  12.011000
15251        OBL   118  DPPC   O32 15251  -0.630000  15.999400
15252       CTL2   118  DPPC   C32 15252  -0.220000  12.011000
15253       HAL2   118  DPPC   H2X 15253   0.090000   1.008000
15254       HAL2   118  DPPC   H2Y 15254   0.090000   1.008000
15255       CTL2   118  DPPC   C23 15255  -0.180000  12.011000
15256       HAL2   118  DPPC   H3R 15256   0.090000   1.008000
15257       HAL2   118  DPPC   H3S 15257   0.090000   1.008000
15258       CTL2   118  DPPC   C24 15258  -0.180000  12.011000
15259       HAL2   118  DPPC   H4R 15259   0.090000   1.008000
15260       HAL2   118  DPPC   H4S 15260   0.090000   1.008000
15261       CTL2   118  DPPC   C25 15261  -0.180000  12.011000
15262       HAL2   118  DPPC   H5R 15262   0.090000   1.008000
15263       HAL2   118  DPPC   H5S 15263   0.090000   1.008000
15264       CTL2   118  DPPC   C26 15264  -0.180000  12.011000
15265       HAL2   118  DPPC   H6R 15265   0.090000   1.008000
15266       HAL2   118  DPPC   H6S 15266   0.090000   1.008000
15267       CTL2   118  DPPC   C27 15267  -0.180000  12.011000
15268       HAL2   118  DPPC   H7R 15268   0.090000   1.008000
15269       HAL2   118  DPPC   H7S 15269   0.090000   1.008000
15270       CTL2   118  DPPC   C28 15270  -0.180000  12.011000
15271       HAL2   118  DPPC   H8R 15271   0.090000   1.008000
15272       HAL2   118  DPPC   H8S 15272   0.090000   1.008000
15273       CTL2   118  DPPC   C29 15273  -0.180000  12.011000
15274       HAL2   118  DPPC   H9R 15274   0.090000   1.008000
15275       HAL2   118  DPPC   H9S 15275   0.090000   1.008000
15276       CTL2   118  DPPC  C210 15276  -0.180000  12.011000
15277       HAL2   118  DPPC  H10R 15277   0.090000   1.008000
15278       HAL2   118  DPPC  H10S 15278   0.090000   1.008000
15279       CTL2   118  DPPC  C211 15279  -0.180000  12.011000
15280       HAL2   118  DPPC  H11R 15280   0.090000   1.008000
15281       HAL2   118  DPPC  H11S 15281   0.090000   1.008000
15282       CTL2   118  DPPC  C212 15282  -0.180000  12.011000
15283       HAL2   118  DPPC  H12R 15283   0.090000   1.008000
15284       HAL2   118  DPPC  H12S 15284   0.090000   1.008000
15285       CTL2   118  DPPC  C213 15285  -0.180000  12.011000
15286       HAL2   118  DPPC  H13R 15286   0.090000   1.008000
15287       HAL2   118  DPPC  H13S 15287   0.090000   1.008000
15288       CTL2   118  DPPC  C214 15288  -0.180000  12.011000
15289       HAL2   118  DPPC  H14R 15289   0.090000   1.008000
15290       HAL2   118  DPPC  H14S 15290   0.090000   1.008000
15291       CTL2   118  DPPC  C215 15291  -0.180000  12.011000
15292       HAL2   118  DPPC  H15R 15292   0.090000   1.008000
15293       HAL2   118  DPPC  H15S 15293   0.090000   1.008000
15294       CTL3   118  DPPC  C216 15294  -0.270000  12.011000
15295       HAL3   118  DPPC  H16R 15295   0.090000   1.008000
15296       HAL3   118  DPPC  H16S 15296   0.090000   1.008000
15297       HAL3   118  DPPC  H16T 15297   0.090000   1.008000
15298       CTL2   118  DPPC   C33 15298  -0.180000  12.011000
15299       HAL2   118  DPPC   H3X 15299   0.090000   1.008000
15300       HAL2   118  DPPC   H3Y 15300   0.090000   1.008000
15301       CTL2   118  DPPC   C34 15301  -0.180000  12.011000
15302       HAL2   118  DPPC   H4X 15302   0.090000   1.008000
15303       HAL2   118  DPPC   H4Y 15303   0.090000   1.008000
15304       CTL2   118  DPPC   C35 15304  -0.180000  12.011000
15305       HAL2   118  DPPC   H5X 15305   0.090000   1.008000
15306       HAL2   118  DPPC   H5Y 15306   0.090000   1.008000
15307       CTL2   118  DPPC   C36 15307  -0.180000  12.011000
15308       HAL2   118  DPPC   H6X 15308   0.090000   1.008000
15309       HAL2   118  DPPC   H6Y 15309   0.090000   1.008000
15310       CTL2   118  DPPC   C37 15310  -0.180000  12.011000
15311       HAL2   118  DPPC   H7X 15311   0.090000   1.008000
15312       HAL2   118  DPPC   H7Y 15312   0.090000   1.008000
15313       CTL2   118  DPPC   C38 15313  -0.180000  12.011000
15314       HAL2   118  DPPC   H8X 15314   0.090000   1.008000
15315       HAL2   118  DPPC   H8Y 15315   0.090000   1.008000
15316       CTL2   118  DPPC   C39 15316  -0.180000  12.011000
15317       HAL2   118  DPPC   H9X 15317   0.090000   1.008000
15318       HAL2   118  DPPC   H9Y 15318   0.090000   1.008000
15319       CTL2   118  DPPC  C310 15319  -0.180000  12.011000
15320       HAL2   118  DPPC  H10X 15320   0.090000   1.008000
15321       HAL2   118  DPPC  H10Y 15321   0.090000   1.008000
15322       CTL2   118  DPPC  C311 15322  -0.180000  12.011000
15323       HAL2   118  DPPC  H11X 15323   0.090000   1.008000
15324       HAL2   118  DPPC  H11Y 15324   0.090000   1.008000
15325       CTL2   118  DPPC  C312 15325  -0.180000  12.011000
15326       HAL2   118  DPPC  H12X 15326   0.090000   1.008000
15327       HAL2   118  DPPC  H12Y 15327   0.090000   1.008000
15328       CTL2   118  DPPC  C313 15328  -0.180000  12.011000
15329       HAL2   118  DPPC  H13X 15329   0.090000   1.008000
15330       HAL2   118  DPPC  H13Y 15330   0.090000   1.008000
15331       CTL2   118  DPPC  C314 15331  -0.180000  12.011000
15332       HAL2   118  DPPC  H14X 15332   0.090000   1.008000
15333       HAL2   118  DPPC  H14Y 15333   0.090000   1.008000
15334       CTL2   118  DPPC  C315 15334  -0.180000  12.011000
15335       HAL2   118  DPPC  H15X 15335   0.090000   1.008000
15336       HAL2   118  DPPC  H15Y 15336   0.090000   1.008000
15337       CTL3   118  DPPC  C316 15337  -0.270000  12.011000
15338       HAL3   118  DPPC  H16X 15338   0.090000   1.008000
15339       HAL3   118  DPPC  H16Y 15339   0.090000   1.008000
15340       HAL3   118  DPPC  H16Z 15340   0.090000   1.008000
15341        NTL   119  DPPC     N 15341  -0.600000  14.007000
15342       CTL5   119  DPPC   C13 15342  -0.350000  12.011000
15343         HL   119  DPPC  H13A 15343   0.250000   1.008000
15344         HL   119  DPPC  H13B 15344   0.250000   1.008000
15345         HL   119  DPPC  H13C 15345   0.250000   1.008000
15346       CTL5   119  DPPC   C14 15346  -0.350000  12.011000
15347         HL   119  DPPC  H14A 15347   0.250000   1.008000
15348         HL   119  DPPC  H14B 15348   0.250000   1.008000
15349         HL   119  DPPC  H14C 15349   0.250000   1.008000
15350       CTL5   119  DPPC   C15 15350  -0.350000  12.011000
15351         HL   119  DPPC  H15A 15351   0.250000   1.008000
15352         HL   119  DPPC  H15B 15352   0.250000   1.008000
15353         HL   119  DPPC  H15C 15353   0.250000   1.008000
15354       CTL2   119  DPPC   C12 15354  -0.100000  12.011000
15355         HL   119  DPPC  H12A 15355   0.250000   1.008000
15356         HL   119  DPPC  H12B 15356   0.250000   1.008000
15357       CTL2   119  DPPC   C11 15357  -0.080000  12.011000
15358       HAL2   119  DPPC  H11A 15358   0.090000   1.008000
15359       HAL2   119  DPPC  H11B 15359   0.090000   1.008000
15360         PL   119  DPPC     P 15360   1.500000  30.974001
15361        O2L   119  DPPC   O13 15361  -0.780000  15.999400
15362        O2L   119  DPPC   O14 15362  -0.780000  15.999400
15363       OSLP   119  DPPC   O11 15363  -0.570000  15.999400
15364       OSLP   119  DPPC   O12 15364  -0.570000  15.999400
15365       CTL2   119  DPPC    C1 15365  -0.080000  12.011000
15366       HAL2   119  DPPC    HA 15366   0.090000   1.008000
15367       HAL2   119  DPPC    HB 15367   0.090000   1.008000
15368       CTL1   119  DPPC    C2 15368   0.170000  12.011000
15369       HAL1   119  DPPC    HS 15369   0.090000   1.008000
15370        OSL   119  DPPC   O21 15370  -0.490000  15.999400
15371         CL   119  DPPC   C21 15371   0.900000  12.011000
15372        OBL   119  DPPC   O22 15372  -0.630000  15.999400
15373       CTL2   119  DPPC   C22 15373  -0.220000  12.011000
15374       HAL2   119  DPPC   H2R 15374   0.090000   1.008000
15375       HAL2   119  DPPC   H2S 15375   0.090000   1.008000
15376       CTL2   119  DPPC    C3 15376   0.080000  12.011000
15377       HAL2   119  DPPC    HX 15377   0.090000   1.008000
15378       HAL2   119  DPPC    HY 15378   0.090000   1.008000
15379        OSL   119  DPPC   O31 15379  -0.490000  15.999400
15380         CL   119  DPPC   C31 15380   0.900000  12.011000
15381        OBL   119  DPPC   O32 15381  -0.630000  15.999400
15382       CTL2   119  DPPC   C32 15382  -0.220000  12.011000
15383       HAL2   119  DPPC   H2X 15383   0.090000   1.008000
15384       HAL2   119  DPPC   H2Y 15384   0.090000   1.008000
15385       CTL2   119  DPPC   C23 15385  -0.180000  12.011000
15386       HAL2   119  DPPC   H3R 15386   0.090000   1.008000
15387       HAL2   119  DPPC   H3S 15387   0.090000   1.008000
15388       CTL2   119  DPPC   C24 15388  -0.180000  12.011000
15389       HAL2   119  DPPC   H4R 15389   0.090000   1.008000
15390       HAL2   119  DPPC   H4S 15390   0.090000   1.008000
15391       CTL2   119  DPPC   C25 15391  -0.180000  12.011000
15392       HAL2   119  DPPC   H5R 15392   0.090000   1.008000
15393       HAL2   119  DPPC   H5S 15393   0.090000   1.008000
15394       CTL2   119  DPPC   C26 15394  -0.180000  12.011000
15395       HAL2   119  DPPC   H6R 15395   0.090000   1.008000
15396       HAL2   119  DPPC   H6S 15396   0.090000   1.008000
15397       CTL2   119  DPPC   C27 15397  -0.180000  12.011000
15398       HAL2   119  DPPC   H7R 15398   0.090000   1.008000
15399       HAL2   119  DPPC   H7S 15399   0.090000   1.008000
15400       CTL2   119  DPPC   C28 15400  -0.180000  12.011000
15401       HAL2   119  DPPC   H8R 15401   0.090000   1.008000
15402       HAL2   119  DPPC   H8S 15402   0.090000   1.008000
15403       CTL2   119  DPPC   C29 15403  -0.180000  12.011000
15404       HAL2   119  DPPC   H9R 15404   0.090000   1.008000
15405       HAL2   119  DPPC   H9S 15405   0.090000   1.008000
15406       CTL2   119  DPPC  C210 15406  -0.180000  12.011000
15407       HAL2   119  DPPC  H10R 15407   0.090000   1.008000
15408       HAL2   119  DPPC  H10S 15408   0.090000   1.008000
15409       CTL2   119  DPPC  C211 15409  -0.180000  12.011000
15410       HAL2   119  DPPC  H11R 15410   0.090000   1.008000
15411       HAL2   119  DPPC  H11S 15411   0.090000   1.008000
15412       CTL2   119  DPPC  C212 15412  -0.180000  12.011000
15413       HAL2   119  DPPC  H12R 15413   0.090000   1.008000
15414       HAL2   119  DPPC  H12S 15414   0.090000   1.008000
15415       CTL2   119  DPPC  C213 15415  -0.180000  12.011000
15416       HAL2   119  DPPC  H13R 15416   0.090000   1.008000
15417       HAL2   119  DPPC  H13S 15417   0.090000   1.008000
15418       CTL2   119  DPPC  C214 15418  -0.180000  12.011000
15419       HAL2   119  DPPC  H14R 15419   0.090000   1.008000
15420       HAL2   119  DPPC  H14S 15420   0.090000   1.008000
15421       CTL2   119  DPPC  C215 15421  -0.180000  12.011000
15422       HAL2   119  DPPC  H15R 15422   0.090000   1.008000
15423       HAL2   119  DPPC  H15S 15423   0.090000   1.008000
15424       CTL3   119  DPPC  C216 15424  -0.270000  12.011000
15425       HAL3   119  DPPC  H16R 15425   0.090000   1.008000
15426       HAL3   119  DPPC  H16S 15426   0.090000   1.008000
15427       HAL3   119  DPPC  H16T 15427   0.090000   1.008000
15428       CTL2   119  DPPC   C33 15428  -0.180000  12.011000
15429       HAL2   119  DPPC   H3X 15429   0.090000   1.008000
15430       HAL2   119  DPPC   H3Y 15430   0.090000   1.008000
15431       CTL2   119  DPPC   C34 15431  -0.180000  12.011000
15432       HAL2   119  DPPC   H4X 15432   0.090000   1.008000
15433       HAL2   119  DPPC   H4Y 15433   0.090000   1.008000
15434       CTL2   119  DPPC   C35 15434  -0.180000  12.011000
15435       HAL2   119  DPPC   H5X 15435   0.090000   1.008000
15436       HAL2   119  DPPC   H5Y 15436   0.090000   1.008000
15437       CTL2   119  DPPC   C36 15437  -0.180000  12.011000
15438       HAL2   119  DPPC   H6X 15438   0.090000   1.008000
15439       HAL2   119  DPPC   H6Y 15439   0.090000   1.008000
15440       CTL2   119  DPPC   C37 15440  -0.180000  12.011000
15441       HAL2   119  DPPC   H7X 15441   0.090000   1.008000
15442       HAL2   119  DPPC   H7Y 15442   0.090000   1.008000
15443       CTL2   119  DPPC   C38 15443  -0.180000  12.011000
15444       HAL2   119  DPPC   H8X 15444   0.090000   1.008000
15445       HAL2   119  DPPC   H8Y 15445   0.090000   1.008000
15446       CTL2   119  DPPC   C39 15446  -0.180000  12.011000
15447       HAL2   119  DPPC   H9X 15447   0.090000   1.008000
15448       HAL2   119  DPPC   H9Y 15448   0.090000   1.008000
15449       CTL2   119  DPPC  C310 15449  -0.180000  12.011000
15450       HAL2   119  DPPC  H10X 15450   0.090000   1.008000
15451       HAL2   119  DPPC  H10Y 15451   0.090000   1.008000
15452       CTL2   119  DPPC  C311 15452  -0.180000  12.011000
15453       HAL2   119  DPPC  H11X 15453   0.090000   1.008000
15454       HAL2   119  DPPC  H11Y 15454   0.090000   1.008000
15455       CTL2   119  DPPC  C312 15455  -0.180000  12.011000
15456       HAL2   119  DPPC  H12X 15456   0.090000   1.008000
15457       HAL2   119  DPPC  H12Y 15457   0.090000   1.008000
15458       CTL2   119  DPPC  C313 15458  -0.180000  12.011000
15459       HAL2   119  DPPC  H13X 15459   0.090000   1.008000
15460       HAL2   119  DPPC  H13Y 15460   0.090000   1.008000
15461       CTL2   119  DPPC  C314 15461  -0.180000  12.011000
15462       HAL2   119  DPPC  H14X 15462   0.090000   1.008000
15463       HAL2   119  DPPC  H14Y 15463   0.090000   1.008000
15464       CTL2   119  DPPC  C315 15464  -0.180000  12.011000
15465       HAL2   119  DPPC  H15X 15465   0.090000   1.008000
15466       HAL2   119  DPPC  H15Y 15466   0.090000   1.008000
15467       CTL3   119  DPPC  C316 15467  -0.270000  12.011000
15468       HAL3   119  DPPC  H16X 15468   0.090000   1.008000
15469       HAL3   119  DPPC  H16Y 15469   0.090000   1.008000
15470       HAL3   119  DPPC  H16Z 15470   0.090000   1.008000
15471        NTL   120  DPPC     N 15471  -0.600000  14.007000
15472       CTL5   120  DPPC   C13 15472  -0.350000  12.011000
15473         HL   120  DPPC  H13A 15473   0.250000   1.008000
15474         HL   120  DPPC  H13B 15474   0.250000   1.008000
15475         HL   120  DPPC  H13C 15475   0.250000   1.008000
15476       CTL5   120  DPPC   C14 15476  -0.350000  12.011000
15477         HL   120  DPPC  H14A 15477   0.250000   1.008000
15478         HL   120  DPPC  H14B 15478   0.250000   1.008000
15479         HL   120  DPPC  H14C 15479   0.250000   1.008000
15480       CTL5   120  DPPC   C15 15480  -0.350000  12.011000
15481         HL   120  DPPC  H15A 15481   0.250000   1.008000
15482         HL   120  DPPC  H15B 15482   0.250000   1.008000
15483         HL   120  DPPC  H15C 15483   0.250000   1.008000
15484       CTL2   120  DPPC   C12 15484  -0.100000  12.011000
15485         HL   120  DPPC  H12A 15485   0.250000   1.008000
15486         HL   120  DPPC  H12B 15486   0.250000   1.008000
15487       CTL2   120  DPPC   C11 15487  -0.080000  12.011000
15488       HAL2   120  DPPC  H11A 15488   0.090000   1.008000
15489       HAL2   120  DPPC  H11B 15489   0.090000   1.008000
15490         PL   120  DPPC     P 15490   1.500000  30.974001
15491        O2L   120  DPPC   O13 15491  -0.780000  15.999400
15492        O2L   120  DPPC   O14 15492  -0.780000  15.999400
15493       OSLP   120  DPPC   O11 15493  -0.570000  15.999400
15494       OSLP   120  DPPC   O12 15494  -0.570000  15.999400
15495       CTL2   120  DPPC    C1 15495  -0.080000  12.011000
15496       HAL2   120  DPPC    HA 15496   0.090000   1.008000
15497       HAL2   120  DPPC    HB 15497   0.090000   1.008000
15498       CTL1   120  DPPC    C2 15498   0.170000  12.011000
15499       HAL1   120  DPPC    HS 15499   0.090000   1.008000
15500        OSL   120  DPPC   O21 15500  -0.490000  15.999400
15501         CL   120  DPPC   C21 15501   0.900000  12.011000
15502        OBL   120  DPPC   O22 15502  -0.630000  15.999400
15503       CTL2   120  DPPC   C22 15503  -0.220000  12.011000
15504       HAL2   120  DPPC   H2R 15504   0.090000   1.008000
15505       HAL2   120  DPPC   H2S 15505   0.090000   1.008000
15506       CTL2   120  DPPC    C3 15506   0.080000  12.011000
15507       HAL2   120  DPPC    HX 15507   0.090000   1.008000
15508       HAL2   120  DPPC    HY 15508   0.090000   1.008000
15509        OSL   120  DPPC   O31 15509  -0.490000  15.999400
15510         CL   120  DPPC   C31 15510   0.900000  12.011000
15511        OBL   120  DPPC   O32 15511  -0.630000  15.999400
15512       CTL2   120  DPPC   C32 15512  -0.220000  12.011000
15513       HAL2   120  DPPC   H2X 15513   0.090000   1.008000
15514       HAL2   120  DPPC   H2Y 15514   0.090000   1.008000
15515       CTL2   120  DPPC   C23 15515  -0.180000  12.011000
15516       HAL2   120  DPPC   H3R 15516   0.090000   1.008000
15517       HAL2   120  DPPC   H3S 15517   0.090000   1.008000
15518       CTL2   120  DPPC   C24 15518  -0.180000  12.011000
15519       HAL2   120  DPPC   H4R 15519   0.090000   1.008000
15520       HAL2   120  DPPC   H4S 15520   0.090000   1.008000
15521       CTL2   120  DPPC   C25 15521  -0.180000  12.011000
15522       HAL2   120  DPPC   H5R 15522   0.090000   1.008000
15523       HAL2   120  DPPC   H5S 15523   0.090000   1.008000
15524       CTL2   120  DPPC   C26 15524  -0.180000  12.011000
15525       HAL2   120  DPPC   H6R 15525   0.090000   1.008000
15526       HAL2   120  DPPC   H6S 15526   0.090000   1.008000
15527       CTL2   120  DPPC   C27 15527  -0.180000  12.011000
15528       HAL2   120  DPPC   H7R 15528   0.090000   1.008000
15529       HAL2   120  DPPC   H7S 15529   0.090000   1.008000
15530       CTL2   120  DPPC   C28 15530  -0.180000  12.011000
15531       HAL2   120  DPPC   H8R 15531   0.090000   1.008000
15532       HAL2   120  DPPC   H8S 15532   0.090000   1.008000
15533       CTL2   120  DPPC   C29 15533  -0.180000  12.011000
15534       HAL2   120  DPPC   H9R 15534   0.090000   1.008000
15535       HAL2   120  DPPC   H9S 15535   0.090000   1.008000
15536       CTL2   120  DPPC  C210 15536  -0.180000  12.011000
15537       HAL2   120  DPPC  H10R 15537   0.090000   1.008000
15538       HAL2   120  DPPC  H10S 15538   0.090000   1.008000
15539       CTL2   120  DPPC  C211 15539  -0.180000  12.011000
15540       HAL2   120  DPPC  H11R 15540   0.090000   1.008000
15541       HAL2   120  DPPC  H11S 15541   0.090000   1.008000
15542       CTL2   120  DPPC  C212 15542  -0.180000  12.011000
15543       HAL2   120  DPPC  H12R 15543   0.090000   1.008000
15544       HAL2   120  DPPC  H12S 15544   0.090000   1.008000
15545       CTL2   120  DPPC  C213 15545  -0.180000  12.011000
15546       HAL2   120  DPPC  H13R 15546   0.090000   1.008000
15547       HAL2   120  DPPC  H13S 15547   0.090000   1.008000
15548       CTL2   120  DPPC  C214 15548  -0.180000  12.011000
15549       HAL2   120  DPPC  H14R 15549   0.090000   1.008000
15550       HAL2   120  DPPC  H14S 15550   0.090000   1.008000
15551       CTL2   120  DPPC  C215 15551  -0.180000  12.011000
15552       HAL2   120  DPPC  H15R 15552   0.090000   1.008000
15553       HAL2   120  DPPC  H15S 15553   0.090000   1.008000
15554       CTL3   120  DPPC  C216 15554  -0.270000  12.011000
15555       HAL3   120  DPPC  H16R 15555   0.090000   1.008000
15556       HAL3   120  DPPC  H16S 15556   0.090000   1.008000
15557       HAL3   120  DPPC  H16T 15557   0.090000   1.008000
15558       CTL2   120  DPPC   C33 15558  -0.180000  12.011000
15559       HAL2   120  DPPC   H3X 15559   0.090000   1.008000
15560       HAL2   120  DPPC   H3Y 15560   0.090000   1.008000
15561       CTL2   120  DPPC   C34 15561  -0.180000  12.011000
15562       HAL2   120  DPPC   H4X 15562   0.090000   1.008000
15563       HAL2   120  DPPC   H4Y 15563   0.090000   1.008000
15564       CTL2   120  DPPC   C35 15564  -0.180000  12.011000
15565       HAL2   120  DPPC   H5X 15565   0.090000   1.008000
15566       HAL2   120  DPPC   H5Y 15566   0.090000   1.008000
15567       CTL2   120  DPPC   C36 15567  -0.180000  12.011000
15568       HAL2   120  DPPC   H6X 15568   0.090000   1.008000
15569       HAL2   120  DPPC   H6Y 15569   0.090000   1.008000
15570       CTL2   120  DPPC   C37 15570  -0.180000  12.011000
15571       HAL2   120  DPPC   H7X 15571   0.090000   1.008000
15572       HAL2   120  DPPC   H7Y 15572   0.090000   1.008000
15573       CTL2   120  DPPC   C38 15573  -0.180000  12.011000
15574       HAL2   120  DPPC   H8X 15574   0.090000   1.008000
15575       HAL2   120  DPPC   H8Y 15575   0.090000   1.008000
15576       CTL2   120  DPPC   C39 15576  -0.180000  12.011000
15577       HAL2   120  DPPC   H9X 15577   0.090000   1.008000
15578       HAL2   120  DPPC   H9Y 15578   0.090000   1.008000
15579       CTL2   120  DPPC  C310 15579  -0.180000  12.011000
15580       HAL2   120  DPPC  H10X 15580   0.090000   1.008000
15581       HAL2   120  DPPC  H10Y 15581   0.090000   1.008000
15582       CTL2   120  DPPC  C311 15582  -0.180000  12.011000
15583       HAL2   120  DPPC  H11X 15583   0.090000   1.008000
15584       HAL2   120  DPPC  H11Y 15584   0.090000   1.008000
15585       CTL2   120  DPPC  C312 15585  -0.180000  12.011000
15586       HAL2   120  DPPC  H12X 15586   0.090000   1.008000
15587       HAL2   120  DPPC  H12Y 15587   0.090000   1.008000
15588       CTL2   120  DPPC  C313 15588  -0.180000  12.011000
15589       HAL2   120  DPPC  H13X 15589   0.090000   1.008000
15590       HAL2   120  DPPC  H13Y 15590   0.090000   1.008000
15591       CTL2   120  DPPC  C314 15591  -0.180000  12.011000
15592       HAL2   120  DPPC  H14X 15592   0.090000   1.008000
15593       HAL2   120  DPPC  H14Y 15593   0.090000   1.008000
15594       CTL2   120  DPPC  C315 15594  -0.180000  12.011000
15595       HAL2   120  DPPC  H15X 15595   0.090000   1.008000
15596       HAL2   120  DPPC  H15Y 15596   0.090000   1.008000
15597       CTL3   120  DPPC  C316 15597  -0.270000  12.011000
15598       HAL3   120  DPPC  H16X 15598   0.090000   1.008000
15599       HAL3   120  DPPC  H16Y 15599   0.090000   1.008000
15600       HAL3   120  DPPC  H16Z 15600   0.090000   1.008000
15601        NTL   121  DPPC     N 15601  -0.600000  14.007000
15602       CTL5   121  DPPC   C13 15602  -0.350000  12.011000
15603         HL   121  DPPC  H13A 15603   0.250000   1.008000
15604         HL   121  DPPC  H13B 15604   0.250000   1.008000
15605         HL   121  DPPC  H13C 15605   0.250000   1.008000
15606       CTL5   121  DPPC   C14 15606  -0.350000  12.011000
15607         HL   121  DPPC  H14A 15607   0.250000   1.008000
15608         HL   121  DPPC  H14B 15608   0.250000   1.008000
15609         HL   121  DPPC  H14C 15609   0.250000   1.008000
15610       CTL5   121  DPPC   C15 15610  -0.350000  12.011000
15611         HL   121  DPPC  H15A 15611   0.250000   1.008000
15612         HL   121  DPPC  H15B 15612   0.250000   1.008000
15613         HL   121  DPPC  H15C 15613   0.250000   1.008000
15614       CTL2   121  DPPC   C12 15614  -0.100000  12.011000
15615         HL   121  DPPC  H12A 15615   0.250000   1.008000
15616         HL   121  DPPC  H12B 15616   0.250000   1.008000
15617       CTL2   121  DPPC   C11 15617  -0.080000  12.011000
15618       HAL2   121  DPPC  H11A 15618   0.090000   1.008000
15619       HAL2   121  DPPC  H11B 15619   0.090000   1.008000
15620         PL   121  DPPC     P 15620   1.500000  30.974001
15621        O2L   121  DPPC   O13 15621  -0.780000  15.999400
15622        O2L   121  DPPC   O14 15622  -0.780000  15.999400
15623       OSLP   121  DPPC   O11 15623  -0.570000  15.999400
15624       OSLP   121  DPPC   O12 15624  -0.570000  15.999400
15625       CTL2   121  DPPC    C1 15625  -0.080000  12.011000
15626       HAL2   121  DPPC    HA 15626   0.090000   1.008000
15627       HAL2   121  DPPC    HB 15627   0.090000   1.008000
15628       CTL1   121  DPPC    C2 15628   0.170000  12.011000
15629       HAL1   121  DPPC    HS 15629   0.090000   1.008000
15630        OSL   121  DPPC   O21 15630  -0.490000  15.999400
15631         CL   121  DPPC   C21 15631   0.900000  12.011000
15632        OBL   121  DPPC   O22 15632  -0.630000  15.999400
15633       CTL2   121  DPPC   C22 15633  -0.220000  12.011000
15634       HAL2   121  DPPC   H2R 15634   0.090000   1.008000
15635       HAL2   121  DPPC   H2S 15635   0.090000   1.008000
15636       CTL2   121  DPPC    C3 15636   0.080000  12.011000
15637       HAL2   121  DPPC    HX 15637   0.090000   1.008000
15638       HAL2   121  DPPC    HY 15638   0.090000   1.008000
15639        OSL   121  DPPC   O31 15639  -0.490000  15.999400
15640         CL   121  DPPC   C31 15640   0.900000  12.011000
15641        OBL   121  DPPC   O32 15641  -0.630000  15.999400
15642       CTL2   121  DPPC   C32 15642  -0.220000  12.011000
15643       HAL2   121  DPPC   H2X 15643   0.090000   1.008000
15644       HAL2   121  DPPC   H2Y 15644   0.090000   1.008000
15645       CTL2   121  DPPC   C23 15645  -0.180000  12.011000
15646       HAL2   121  DPPC   H3R 15646   0.090000   1.008000
15647       HAL2   121  DPPC   H3S 15647   0.090000   1.008000
15648       CTL2   121  DPPC   C24 15648  -0.180000  12.011000
15649       HAL2   121  DPPC   H4R 15649   0.090000   1.008000
15650       HAL2   121  DPPC   H4S 15650   0.090000   1.008000
15651       CTL2   121  DPPC   C25 15651  -0.180000  12.011000
15652       HAL2   121  DPPC   H5R 15652   0.090000   1.008000
15653       HAL2   121  DPPC   H5S 15653   0.090000   1.008000
15654       CTL2   121  DPPC   C26 15654  -0.180000  12.011000
15655       HAL2   121  DPPC   H6R 15655   0.090000   1.008000
15656       HAL2   121  DPPC   H6S 15656   0.090000   1.008000
15657       CTL2   121  DPPC   C27 15657  -0.180000  12.011000
15658       HAL2   121  DPPC   H7R 15658   0.090000   1.008000
15659       HAL2   121  DPPC   H7S 15659   0.090000   1.008000
15660       CTL2   121  DPPC   C28 15660  -0.180000  12.011000
15661       HAL2   121  DPPC   H8R 15661   0.090000   1.008000
15662       HAL2   121  DPPC   H8S 15662   0.090000   1.008000
15663       CTL2   121  DPPC   C29 15663  -0.180000  12.011000
15664       HAL2   121  DPPC   H9R 15664   0.090000   1.008000
15665       HAL2   121  DPPC   H9S 15665   0.090000   1.008000
15666       CTL2   121  DPPC  C210 15666  -0.180000  12.011000
15667       HAL2   121  DPPC  H10R 15667   0.090000   1.008000
15668       HAL2   121  DPPC  H10S 15668   0.090000   1.008000
15669       CTL2   121  DPPC  C211 15669  -0.180000  12.011000
15670       HAL2   121  DPPC  H11R 15670   0.090000   1.008000
15671       HAL2   121  DPPC  H11S 15671   0.090000   1.008000
15672       CTL2   121  DPPC  C212 15672  -0.180000  12.011000
15673       HAL2   121  DPPC  H12R 15673   0.090000   1.008000
15674       HAL2   121  DPPC  H12S 15674   0.090000   1.008000
15675       CTL2   121  DPPC  C213 15675  -0.180000  12.011000
15676       HAL2   121  DPPC  H13R 15676   0.090000   1.008000
15677       HAL2   121  DPPC  H13S 15677   0.090000   1.008000
15678       CTL2   121  DPPC  C214 15678  -0.180000  12.011000
15679       HAL2   121  DPPC  H14R 15679   0.090000   1.008000
15680       HAL2   121  DPPC  H14S 15680   0.090000   1.008000
15681       CTL2   121  DPPC  C215 15681  -0.180000  12.011000
15682       HAL2   121  DPPC  H15R 15682   0.090000   1.008000
15683       HAL2   121  DPPC  H15S 15683   0.090000   1.008000
15684       CTL3   121  DPPC  C216 15684  -0.270000  12.011000
15685       HAL3   121  DPPC  H16R 15685   0.090000   1.008000
15686       HAL3   121  DPPC  H16S 15686   0.090000   1.008000
15687       HAL3   121  DPPC  H16T 15687   0.090000   1.008000
15688       CTL2   121  DPPC   C33 15688  -0.180000  12.011000
15689       HAL2   121  DPPC   H3X 15689   0.090000   1.008000
15690       HAL2   121  DPPC   H3Y 15690   0.090000   1.008000
15691       CTL2   121  DPPC   C34 15691  -0.180000  12.011000
15692       HAL2   121  DPPC   H4X 15692   0.090000   1.008000
15693       HAL2   121  DPPC   H4Y 15693   0.090000   1.008000
15694       CTL2   121  DPPC   C35 15694  -0.180000  12.011000
15695       HAL2   121  DPPC   H5X 15695   0.090000   1.008000
15696       HAL2   121  DPPC   H5Y 15696   0.090000   1.008000
15697       CTL2   121  DPPC   C36 15697  -0.180000  12.011000
15698       HAL2   121  DPPC   H6X 15698   0.090000   1.008000
15699       HAL2   121  DPPC   H6Y 15699   0.090000   1.008000
15700       CTL2   121  DPPC   C37 15700  -0.180000  12.011000
15701       HAL2   121  DPPC   H7X 15701   0.090000   1.008000
15702       HAL2   121  DPPC   H7Y 15702   0.090000   1.008000
15703       CTL2   121  DPPC   C38 15703  -0.180000  12.011000
15704       HAL2   121  DPPC   H8X 15704   0.090000   1.008000
15705       HAL2   121  DPPC   H8Y 15705   0.090000   1.008000
15706       CTL2   121  DPPC   C39 15706  -0.180000  12.011000
15707       HAL2   121  DPPC   H9X 15707   0.090000   1.008000
15708       HAL2   121  DPPC   H9Y 15708   0.090000   1.008000
15709       CTL2   121  DPPC  C310 15709  -0.180000  12.011000
15710       HAL2   121  DPPC  H10X 15710   0.090000   1.008000
15711       HAL2   121  DPPC  H10Y 15711   0.090000   1.008000
15712       CTL2   121  DPPC  C311 15712  -0.180000  12.011000
15713       HAL2   121  DPPC  H11X 15713   0.090000   1.008000
15714       HAL2   121  DPPC  H11Y 15714   0.090000   1.008000
15715       CTL2   121  DPPC  C312 15715  -0.180000  12.011000
15716       HAL2   121  DPPC  H12X 15716   0.090000   1.008000
15717       HAL2   121  DPPC  H12Y 15717   0.090000   1.008000
15718       CTL2   121  DPPC  C313 15718  -0.180000  12.011000
15719       HAL2   121  DPPC  H13X 15719   0.090000   1.008000
15720       HAL2   121  DPPC  H13Y 15720   0.090000   1.008000
15721       CTL2   121  DPPC  C314 15721  -0.180000  12.011000
15722       HAL2   121  DPPC  H14X 15722   0.090000   1.008000
15723       HAL2   121  DPPC  H14Y 15723   0.090000   1.008000
15724       CTL2   121  DPPC  C315 15724  -0.180000  12.011000
15725       HAL2   121  DPPC  H15X 15725   0.090000   1.008000
15726       HAL2   121  DPPC  H15Y 15726   0.090000   1.008000
15727       CTL3   121  DPPC  C316 15727  -0.270000  12.011000
15728       HAL3   121  DPPC  H16X 15728   0.090000   1.008000
15729       HAL3   121  DPPC  H16Y 15729   0.090000   1.008000
15730       HAL3   121  DPPC  H16Z 15730   0.090000   1.008000
15731        NTL   122  DPPC     N 15731  -0.600000  14.007000
15732       CTL5   122  DPPC   C13 15732  -0.350000  12.011000
15733         HL   122  DPPC  H13A 15733   0.250000   1.008000
15734         HL   122  DPPC  H13B 15734   0.250000   1.008000
15735         HL   122  DPPC  H13C 15735   0.250000   1.008000
15736       CTL5   122  DPPC   C14 15736  -0.350000  12.011000
15737         HL   122  DPPC  H14A 15737   0.250000   1.008000
15738         HL   122  DPPC  H14B 15738   0.250000   1.008000
15739         HL   122  DPPC  H14C 15739   0.250000   1.008000
15740       CTL5   122  DPPC   C15 15740  -0.350000  12.011000
15741         HL   122  DPPC  H15A 15741   0.250000   1.008000
15742         HL   122  DPPC  H15B 15742   0.250000   1.008000
15743         HL   122  DPPC  H15C 15743   0.250000   1.008000
15744       CTL2   122  DPPC   C12 15744  -0.100000  12.011000
15745         HL   122  DPPC  H12A 15745   0.250000   1.008000
15746         HL   122  DPPC  H12B 15746   0.250000   1.008000
15747       CTL2   122  DPPC   C11 15747  -0.080000  12.011000
15748       HAL2   122  DPPC  H11A 15748   0.090000   1.008000
15749       HAL2   122  DPPC  H11B 15749   0.090000   1.008000
15750         PL   122  DPPC     P 15750   1.500000  30.974001
15751        O2L   122  DPPC   O13 15751  -0.780000  15.999400
15752        O2L   122  DPPC   O14 15752  -0.780000  15.999400
15753       OSLP   122  DPPC   O11 15753  -0.570000  15.999400
15754       OSLP   122  DPPC   O12 15754  -0.570000  15.999400
15755       CTL2   122  DPPC    C1 15755  -0.080000  12.011000
15756       HAL2   122  DPPC    HA 15756   0.090000   1.008000
15757       HAL2   122  DPPC    HB 15757   0.090000   1.008000
15758       CTL1   122  DPPC    C2 15758   0.170000  12.011000
15759       HAL1   122  DPPC    HS 15759   0.090000   1.008000
15760        OSL   122  DPPC   O21 15760  -0.490000  15.999400
15761         CL   122  DPPC   C21 15761   0.900000  12.011000
15762        OBL   122  DPPC   O22 15762  -0.630000  15.999400
15763       CTL2   122  DPPC   C22 15763  -0.220000  12.011000
15764       HAL2   122  DPPC   H2R 15764   0.090000   1.008000
15765       HAL2   122  DPPC   H2S 15765   0.090000   1.008000
15766       CTL2   122  DPPC    C3 15766   0.080000  12.011000
15767       HAL2   122  DPPC    HX 15767   0.090000   1.008000
15768       HAL2   122  DPPC    HY 15768   0.090000   1.008000
15769        OSL   122  DPPC   O31 15769  -0.490000  15.999400
15770         CL   122  DPPC   C31 15770   0.900000  12.011000
15771        OBL   122  DPPC   O32 15771  -0.630000  15.999400
15772       CTL2   122  DPPC   C32 15772  -0.220000  12.011000
15773       HAL2   122  DPPC   H2X 15773   0.090000   1.008000
15774       HAL2   122  DPPC   H2Y 15774   0.090000   1.008000
15775       CTL2   122  DPPC   C23 15775  -0.180000  12.011000
15776       HAL2   122  DPPC   H3R 15776   0.090000   1.008000
15777       HAL2   122  DPPC   H3S 15777   0.090000   1.008000
15778       CTL2   122  DPPC   C24 15778  -0.180000  12.011000
15779       HAL2   122  DPPC   H4R 15779   0.090000   1.008000
15780       HAL2   122  DPPC   H4S 15780   0.090000   1.008000
15781       CTL2   122  DPPC   C25 15781  -0.180000  12.011000
15782       HAL2   122  DPPC   H5R 15782   0.090000   1.008000
15783       HAL2   122  DPPC   H5S 15783   0.090000   1.008000
15784       CTL2   122  DPPC   C26 15784  -0.180000  12.011000
15785       HAL2   122  DPPC   H6R 15785   0.090000   1.008000
15786       HAL2   122  DPPC   H6S 15786   0.090000   1.008000
15787       CTL2   122  DPPC   C27 15787  -0.180000  12.011000
15788       HAL2   122  DPPC   H7R 15788   0.090000   1.008000
15789       HAL2   122  DPPC   H7S 15789   0.090000   1.008000
15790       CTL2   122  DPPC   C28 15790  -0.180000  12.011000
15791       HAL2   122  DPPC   H8R 15791   0.090000   1.008000
15792       HAL2   122  DPPC   H8S 15792   0.090000   1.008000
15793       CTL2   122  DPPC   C29 15793  -0.180000  12.011000
15794       HAL2   122  DPPC   H9R 15794   0.090000   1.008000
15795       HAL2   122  DPPC   H9S 15795   0.090000   1.008000
15796       CTL2   122  DPPC  C210 15796  -0.180000  12.011000
15797       HAL2   122  DPPC  H10R 15797   0.090000   1.008000
15798       HAL2   122  DPPC  H10S 15798   0.090000   1.008000
15799       CTL2   122  DPPC  C211 15799  -0.180000  12.011000
15800       HAL2   122  DPPC  H11R 15800   0.090000   1.008000
15801       HAL2   122  DPPC  H11S 15801   0.090000   1.008000
15802       CTL2   122  DPPC  C212 15802  -0.180000  12.011000
15803       HAL2   122  DPPC  H12R 15803   0.090000   1.008000
15804       HAL2   122  DPPC  H12S 15804   0.090000   1.008000
15805       CTL2   122  DPPC  C213 15805  -0.180000  12.011000
15806       HAL2   122  DPPC  H13R 15806   0.090000   1.008000
15807       HAL2   122  DPPC  H13S 15807   0.090000   1.008000
15808       CTL2   122  DPPC  C214 15808  -0.180000  12.011000
15809       HAL2   122  DPPC  H14R 15809   0.090000   1.008000
15810       HAL2   122  DPPC  H14S 15810   0.090000   1.008000
15811       CTL2   122  DPPC  C215 15811  -0.180000  12.011000
15812       HAL2   122  DPPC  H15R 15812   0.090000   1.008000
15813       HAL2   122  DPPC  H15S 15813   0.090000   1.008000
15814       CTL3   122  DPPC  C216 15814  -0.270000  12.011000
15815       HAL3   122  DPPC  H16R 15815   0.090000   1.008000
15816       HAL3   122  DPPC  H16S 15816   0.090000   1.008000
15817       HAL3   122  DPPC  H16T 15817   0.090000   1.008000
15818       CTL2   122  DPPC   C33 15818  -0.180000  12.011000
15819       HAL2   122  DPPC   H3X 15819   0.090000   1.008000
15820       HAL2   122  DPPC   H3Y 15820   0.090000   1.008000
15821       CTL2   122  DPPC   C34 15821  -0.180000  12.011000
15822       HAL2   122  DPPC   H4X 15822   0.090000   1.008000
15823       HAL2   122  DPPC   H4Y 15823   0.090000   1.008000
15824       CTL2   122  DPPC   C35 15824  -0.180000  12.011000
15825       HAL2   122  DPPC   H5X 15825   0.090000   1.008000
15826       HAL2   122  DPPC   H5Y 15826   0.090000   1.008000
15827       CTL2   122  DPPC   C36 15827  -0.180000  12.011000
15828       HAL2   122  DPPC   H6X 15828   0.090000   1.008000
15829       HAL2   122  DPPC   H6Y 15829   0.090000   1.008000
15830       CTL2   122  DPPC   C37 15830  -0.180000  12.011000
15831       HAL2   122  DPPC   H7X 15831   0.090000   1.008000
15832       HAL2   122  DPPC   H7Y 15832   0.090000   1.008000
15833       CTL2   122  DPPC   C38 15833  -0.180000  12.011000
15834       HAL2   122  DPPC   H8X 15834   0.090000   1.008000
15835       HAL2   122  DPPC   H8Y 15835   0.090000   1.008000
15836       CTL2   122  DPPC   C39 15836  -0.180000  12.011000
15837       HAL2   122  DPPC   H9X 15837   0.090000   1.008000
15838       HAL2   122  DPPC   H9Y 15838   0.090000   1.008000
15839       CTL2   122  DPPC  C310 15839  -0.180000  12.011000
15840       HAL2   122  DPPC  H10X 15840   0.090000   1.008000
15841       HAL2   122  DPPC  H10Y 15841   0.090000   1.008000
15842       CTL2   122  DPPC  C311 15842  -0.180000  12.011000
15843       HAL2   122  DPPC  H11X 15843   0.090000   1.008000
15844       HAL2   122  DPPC  H11Y 15844   0.090000   1.008000
15845       CTL2   122  DPPC  C312 15845  -0.180000  12.011000
15846       HAL2   122  DPPC  H12X 15846   0.090000   1.008000
15847       HAL2   122  DPPC  H12Y 15847   0.090000   1.008000
15848       CTL2   122  DPPC  C313 15848  -0.180000  12.011000
15849       HAL2   122  DPPC  H13X 15849   0.090000   1.008000
15850       HAL2   122  DPPC  H13Y 15850   0.090000   1.008000
15851       CTL2   122  DPPC  C314 15851  -0.180000  12.011000
15852       HAL2   122  DPPC  H14X 15852   0.090000   1.008000
15853       HAL2   122  DPPC  H14Y 15853   0.090000   1.008000
15854       CTL2   122  DPPC  C315 15854  -0.180000  12.011000
15855       HAL2   122  DPPC  H15X 15855   0.090000   1.008000
15856       HAL2   122  DPPC  H15Y 15856   0.090000   1.008000
15857       CTL3   122  DPPC  C316 15857  -0.270000  12.011000
15858       HAL3   122  DPPC  H16X 15858   0.090000   1.008000
15859       HAL3   122  DPPC  H16Y 15859   0.090000   1.008000
15860       HAL3   122  DPPC  H16Z 15860   0.090000   1.008000
15861        NTL   123  DPPC     N 15861  -0.600000  14.007000
15862       CTL5   123  DPPC   C13 15862  -0.350000  12.011000
15863         HL   123  DPPC  H13A 15863   0.250000   1.008000
15864         HL   123  DPPC  H13B 15864   0.250000   1.008000
15865         HL   123  DPPC  H13C 15865   0.250000   1.008000
15866       CTL5   123  DPPC   C14 15866  -0.350000  12.011000
15867         HL   123  DPPC  H14A 15867   0.250000   1.008000
15868         HL   123  DPPC  H14B 15868   0.250000   1.008000
15869         HL   123  DPPC  H14C 15869   0.250000   1.008000
15870       CTL5   123  DPPC   C15 15870  -0.350000  12.011000
15871         HL   123  DPPC  H15A 15871   0.250000   1.008000
15872         HL   123  DPPC  H15B 15872   0.250000   1.008000
15873         HL   123  DPPC  H15C 15873   0.250000   1.008000
15874       CTL2   123  DPPC   C12 15874  -0.100000  12.011000
15875         HL   123  DPPC  H12A 15875   0.250000   1.008000
15876         HL   123  DPPC  H12B 15876   0.250000   1.008000
15877       CTL2   123  DPPC   C11 15877  -0.080000  12.011000
15878       HAL2   123  DPPC  H11A 15878   0.090000   1.008000
15879       HAL2   123  DPPC  H11B 15879   0.090000   1.008000
15880         PL   123  DPPC     P 15880   1.500000  30.974001
15881        O2L   123  DPPC   O13 15881  -0.780000  15.999400
15882        O2L   123  DPPC   O14 15882  -0.780000  15.999400
15883       OSLP   123  DPPC   O11 15883  -0.570000  15.999400
15884       OSLP   123  DPPC   O12 15884  -0.570000  15.999400
15885       CTL2   123  DPPC    C1 15885  -0.080000  12.011000
15886       HAL2   123  DPPC    HA 15886   0.090000   1.008000
15887       HAL2   123  DPPC    HB 15887   0.090000   1.008000
15888       CTL1   123  DPPC    C2 15888   0.170000  12.011000
15889       HAL1   123  DPPC    HS 15889   0.090000   1.008000
15890        OSL   123  DPPC   O21 15890  -0.490000  15.999400
15891         CL   123  DPPC   C21 15891   0.900000  12.011000
15892        OBL   123  DPPC   O22 15892  -0.630000  15.999400
15893       CTL2   123  DPPC   C22 15893  -0.220000  12.011000
15894       HAL2   123  DPPC   H2R 15894   0.090000   1.008000
15895       HAL2   123  DPPC   H2S 15895   0.090000   1.008000
15896       CTL2   123  DPPC    C3 15896   0.080000  12.011000
15897       HAL2   123  DPPC    HX 15897   0.090000   1.008000
15898       HAL2   123  DPPC    HY 15898   0.090000   1.008000
15899        OSL   123  DPPC   O31 15899  -0.490000  15.999400
15900         CL   123  DPPC   C31 15900   0.900000  12.011000
15901        OBL   123  DPPC   O32 15901  -0.630000  15.999400
15902       CTL2   123  DPPC   C32 15902  -0.220000  12.011000
15903       HAL2   123  DPPC   H2X 15903   0.090000   1.008000
15904       HAL2   123  DPPC   H2Y 15904   0.090000   1.008000
15905       CTL2   123  DPPC   C23 15905  -0.180000  12.011000
15906       HAL2   123  DPPC   H3R 15906   0.090000   1.008000
15907       HAL2   123  DPPC   H3S 15907   0.090000   1.008000
15908       CTL2   123  DPPC   C24 15908  -0.180000  12.011000
15909       HAL2   123  DPPC   H4R 15909   0.090000   1.008000
15910       HAL2   123  DPPC   H4S 15910   0.090000   1.008000
15911       CTL2   123  DPPC   C25 15911  -0.180000  12.011000
15912       HAL2   123  DPPC   H5R 15912   0.090000   1.008000
15913       HAL2   123  DPPC   H5S 15913   0.090000   1.008000
15914       CTL2   123  DPPC   C26 15914  -0.180000  12.011000
15915       HAL2   123  DPPC   H6R 15915   0.090000   1.008000
15916       HAL2   123  DPPC   H6S 15916   0.090000   1.008000
15917       CTL2   123  DPPC   C27 15917  -0.180000  12.011000
15918       HAL2   123  DPPC   H7R 15918   0.090000   1.008000
15919       HAL2   123  DPPC   H7S 15919   0.090000   1.008000
15920       CTL2   123  DPPC   C28 15920  -0.180000  12.011000
15921       HAL2   123  DPPC   H8R 15921   0.090000   1.008000
15922       HAL2   123  DPPC   H8S 15922   0.090000   1.008000
15923       CTL2   123  DPPC   C29 15923  -0.180000  12.011000
15924       HAL2   123  DPPC   H9R 15924   0.090000   1.008000
15925       HAL2   123  DPPC   H9S 15925   0.090000   1.008000
15926       CTL2   123  DPPC  C210 15926  -0.180000  12.011000
15927       HAL2   123  DPPC  H10R 15927   0.090000   1.008000
15928       HAL2   123  DPPC  H10S 15928   0.090000   1.008000
15929       CTL2   123  DPPC  C211 15929  -0.180000  12.011000
15930       HAL2   123  DPPC  H11R 15930   0.090000   1.008000
15931       HAL2   123  DPPC  H11S 15931   0.090000   1.008000
15932       CTL2   123  DPPC  C212 15932  -0.180000  12.011000
15933       HAL2   123  DPPC  H12R 15933   0.090000   1.008000
15934       HAL2   123  DPPC  H12S 15934   0.090000   1.008000
15935       CTL2   123  DPPC  C213 15935  -0.180000  12.011000
15936       HAL2   123  DPPC  H13R 15936   0.090000   1.008000
15937       HAL2   123  DPPC  H13S 15937   0.090000   1.008000
15938       CTL2   123  DPPC  C214 15938  -0.180000  12.011000
15939       HAL2   123  DPPC  H14R 15939   0.090000   1.008000
15940       HAL2   123  DPPC  H14S 15940   0.090000   1.008000
15941       CTL2   123  DPPC  C215 15941  -0.180000  12.011000
15942       HAL2   123  DPPC  H15R 15942   0.090000   1.008000
15943       HAL2   123  DPPC  H15S 15943   0.090000   1.008000
15944       CTL3   123  DPPC  C216 15944  -0.270000  12.011000
15945       HAL3   123  DPPC  H16R 15945   0.090000   1.008000
15946       HAL3   123  DPPC  H16S 15946   0.090000   1.008000
15947       HAL3   123  DPPC  H16T 15947   0.090000   1.008000
15948       CTL2   123  DPPC   C33 15948  -0.180000  12.011000
15949       HAL2   123  DPPC   H3X 15949   0.090000   1.008000
15950       HAL2   123  DPPC   H3Y 15950   0.090000   1.008000
15951       CTL2   123  DPPC   C34 15951  -0.180000  12.011000
15952       HAL2   123  DPPC   H4X 15952   0.090000   1.008000
15953       HAL2   123  DPPC   H4Y 15953   0.090000   1.008000
15954       CTL2   123  DPPC   C35 15954  -0.180000  12.011000
15955       HAL2   123  DPPC   H5X 15955   0.090000   1.008000
15956       HAL2   123  DPPC   H5Y 15956   0.090000   1.008000
15957       CTL2   123  DPPC   C36 15957  -0.180000  12.011000
15958       HAL2   123  DPPC   H6X 15958   0.090000   1.008000
15959       HAL2   123  DPPC   H6Y 15959   0.090000   1.008000
15960       CTL2   123  DPPC   C37 15960  -0.180000  12.011000
15961       HAL2   123  DPPC   H7X 15961   0.090000   1.008000
15962       HAL2   123  DPPC   H7Y 15962   0.090000   1.008000
15963       CTL2   123  DPPC   C38 15963  -0.180000  12.011000
15964       HAL2   123  DPPC   H8X 15964   0.090000   1.008000
15965       HAL2   123  DPPC   H8Y 15965   0.090000   1.008000
15966       CTL2   123  DPPC   C39 15966  -0.180000  12.011000
15967       HAL2   123  DPPC   H9X 15967   0.090000   1.008000
15968       HAL2   123  DPPC   H9Y 15968   0.090000   1.008000
15969       CTL2   123  DPPC  C310 15969  -0.180000  12.011000
15970       HAL2   123  DPPC  H10X 15970   0.090000   1.008000
15971       HAL2   123  DPPC  H10Y 15971   0.090000   1.008000
15972       CTL2   123  DPPC  C311 15972  -0.180000  12.011000
15973       HAL2   123  DPPC  H11X 15973   0.090000   1.008000
15974       HAL2   123  DPPC  H11Y 15974   0.090000   1.008000
15975       CTL2   123  DPPC  C312 15975  -0.180000  12.011000
15976       HAL2   123  DPPC  H12X 15976   0.090000   1.008000
15977       HAL2   123  DPPC  H12Y 15977   0.090000   1.008000
15978       CTL2   123  DPPC  C313 15978  -0.180000  12.011000
15979       HAL2   123  DPPC  H13X 15979   0.090000   1.008000
15980       HAL2   123  DPPC  H13Y 15980   0.090000   1.008000
15981       CTL2   123  DPPC  C314 15981  -0.180000  12.011000
15982       HAL2   123  DPPC  H14X 15982   0.090000   1.008000
15983       HAL2   123  DPPC  H14Y 15983   0.090000   1.008000
15984       CTL2   123  DPPC  C315 15984  -0.180000  12.011000
15985       HAL2   123  DPPC  H15X 15985   0.090000   1.008000
15986       HAL2   123  DPPC  H15Y 15986   0.090000   1.008000
15987       CTL3   123  DPPC  C316 15987  -0.270000  12.011000
15988       HAL3   123  DPPC  H16X 15988   0.090000   1.008000
15989       HAL3   123  DPPC  H16Y 15989   0.090000   1.008000
15990       HAL3   123  DPPC  H16Z 15990   0.090000   1.008000
15991        NTL   124  DPPC     N 15991  -0.600000  14.007000
15992       CTL5   124  DPPC   C13 15992  -0.350000  12.011000
15993         HL   124  DPPC  H13A 15993   0.250000   1.008000
15994         HL   124  DPPC  H13B 15994   0.250000   1.008000
15995         HL   124  DPPC  H13C 15995   0.250000   1.008000
15996       CTL5   124  DPPC   C14 15996  -0.350000  12.011000
15997         HL   124  DPPC  H14A 15997   0.250000   1.008000
15998         HL   124  DPPC  H14B 15998   0.250000   1.008000
15999         HL   124  DPPC  H14C 15999   0.250000   1.008000
16000       CTL5   124  DPPC   C15 16000  -0.350000  12.011000
16001         HL   124  DPPC  H15A 16001   0.250000   1.008000
16002         HL   124  DPPC  H15B 16002   0.250000   1.008000
16003         HL   124  DPPC  H15C 16003   0.250000   1.008000
16004       CTL2   124  DPPC   C12 16004  -0.100000  12.011000
16005         HL   124  DPPC  H12A 16005   0.250000   1.008000
16006         HL   124  DPPC  H12B 16006   0.250000   1.008000
16007       CTL2   124  DPPC   C11 16007  -0.080000  12.011000
16008       HAL2   124  DPPC  H11A 16008   0.090000   1.008000
16009       HAL2   124  DPPC  H11B 16009   0.090000   1.008000
16010         PL   124  DPPC     P 16010   1.500000  30.974001
16011        O2L   124  DPPC   O13 16011  -0.780000  15.999400
16012        O2L   124  DPPC   O14 16012  -0.780000  15.999400
16013       OSLP   124  DPPC   O11 16013  -0.570000  15.999400
16014       OSLP   124  DPPC   O12 16014  -0.570000  15.999400
16015       CTL2   124  DPPC    C1 16015  -0.080000  12.011000
16016       HAL2   124  DPPC    HA 16016   0.090000   1.008000
16017       HAL2   124  DPPC    HB 16017   0.090000   1.008000
16018       CTL1   124  DPPC    C2 16018   0.170000  12.011000
16019       HAL1   124  DPPC    HS 16019   0.090000   1.008000
16020        OSL   124  DPPC   O21 16020  -0.490000  15.999400
16021         CL   124  DPPC   C21 16021   0.900000  12.011000
16022        OBL   124  DPPC   O22 16022  -0.630000  15.999400
16023       CTL2   124  DPPC   C22 16023  -0.220000  12.011000
16024       HAL2   124  DPPC   H2R 16024   0.090000   1.008000
16025       HAL2   124  DPPC   H2S 16025   0.090000   1.008000
16026       CTL2   124  DPPC    C3 16026   0.080000  12.011000
16027       HAL2   124  DPPC    HX 16027   0.090000   1.008000
16028       HAL2   124  DPPC    HY 16028   0.090000   1.008000
16029        OSL   124  DPPC   O31 16029  -0.490000  15.999400
16030         CL   124  DPPC   C31 16030   0.900000  12.011000
16031        OBL   124  DPPC   O32 16031  -0.630000  15.999400
16032       CTL2   124  DPPC   C32 16032  -0.220000  12.011000
16033       HAL2   124  DPPC   H2X 16033   0.090000   1.008000
16034       HAL2   124  DPPC   H2Y 16034   0.090000   1.008000
16035       CTL2   124  DPPC   C23 16035  -0.180000  12.011000
16036       HAL2   124  DPPC   H3R 16036   0.090000   1.008000
16037       HAL2   124  DPPC   H3S 16037   0.090000   1.008000
16038       CTL2   124  DPPC   C24 16038  -0.180000  12.011000
16039       HAL2   124  DPPC   H4R 16039   0.090000   1.008000
16040       HAL2   124  DPPC   H4S 16040   0.090000   1.008000
16041       CTL2   124  DPPC   C25 16041  -0.180000  12.011000
16042       HAL2   124  DPPC   H5R 16042   0.090000   1.008000
16043       HAL2   124  DPPC   H5S 16043   0.090000   1.008000
16044       CTL2   124  DPPC   C26 16044  -0.180000  12.011000
16045       HAL2   124  DPPC   H6R 16045   0.090000   1.008000
16046       HAL2   124  DPPC   H6S 16046   0.090000   1.008000
16047       CTL2   124  DPPC   C27 16047  -0.180000  12.011000
16048       HAL2   124  DPPC   H7R 16048   0.090000   1.008000
16049       HAL2   124  DPPC   H7S 16049   0.090000   1.008000
16050       CTL2   124  DPPC   C28 16050  -0.180000  12.011000
16051       HAL2   124  DPPC   H8R 16051   0.090000   1.008000
16052       HAL2   124  DPPC   H8S 16052   0.090000   1.008000
16053       CTL2   124  DPPC   C29 16053  -0.180000  12.011000
16054       HAL2   124  DPPC   H9R 16054   0.090000   1.008000
16055       HAL2   124  DPPC   H9S 16055   0.090000   1.008000
16056       CTL2   124  DPPC  C210 16056  -0.180000  12.011000
16057       HAL2   124  DPPC  H10R 16057   0.090000   1.008000
16058       HAL2   124  DPPC  H10S 16058   0.090000   1.008000
16059       CTL2   124  DPPC  C211 16059  -0.180000  12.011000
16060       HAL2   124  DPPC  H11R 16060   0.090000   1.008000
16061       HAL2   124  DPPC  H11S 16061   0.090000   1.008000
16062       CTL2   124  DPPC  C212 16062  -0.180000  12.011000
16063       HAL2   124  DPPC  H12R 16063   0.090000   1.008000
16064       HAL2   124  DPPC  H12S 16064   0.090000   1.008000
16065       CTL2   124  DPPC  C213 16065  -0.180000  12.011000
16066       HAL2   124  DPPC  H13R 16066   0.090000   1.008000
16067       HAL2   124  DPPC  H13S 16067   0.090000   1.008000
16068       CTL2   124  DPPC  C214 16068  -0.180000  12.011000
16069       HAL2   124  DPPC  H14R 16069   0.090000   1.008000
16070       HAL2   124  DPPC  H14S 16070   0.090000   1.008000
16071       CTL2   124  DPPC  C215 16071  -0.180000  12.011000
16072       HAL2   124  DPPC  H15R 16072   0.090000   1.008000
16073       HAL2   124  DPPC  H15S 16073   0.090000   1.008000
16074       CTL3   124  DPPC  C216 16074  -0.270000  12.011000
16075       HAL3   124  DPPC  H16R 16075   0.090000   1.008000
16076       HAL3   124  DPPC  H16S 16076   0.090000   1.008000
16077       HAL3   124  DPPC  H16T 16077   0.090000   1.008000
16078       CTL2   124  DPPC   C33 16078  -0.180000  12.011000
16079       HAL2   124  DPPC   H3X 16079   0.090000   1.008000
16080       HAL2   124  DPPC   H3Y 16080   0.090000   1.008000
16081       CTL2   124  DPPC   C34 16081  -0.180000  12.011000
16082       HAL2   124  DPPC   H4X 16082   0.090000   1.008000
16083       HAL2   124  DPPC   H4Y 16083   0.090000   1.008000
16084       CTL2   124  DPPC   C35 16084  -0.180000  12.011000
16085       HAL2   124  DPPC   H5X 16085   0.090000   1.008000
16086       HAL2   124  DPPC   H5Y 16086   0.090000   1.008000
16087       CTL2   124  DPPC   C36 16087  -0.180000  12.011000
16088       HAL2   124  DPPC   H6X 16088   0.090000   1.008000
16089       HAL2   124  DPPC   H6Y 16089   0.090000   1.008000
16090       CTL2   124  DPPC   C37 16090  -0.180000  12.011000
16091       HAL2   124  DPPC   H7X 16091   0.090000   1.008000
16092       HAL2   124  DPPC   H7Y 16092   0.090000   1.008000
16093       CTL2   124  DPPC   C38 16093  -0.180000  12.011000
16094       HAL2   124  DPPC   H8X 16094   0.090000   1.008000
16095       HAL2   124  DPPC   H8Y 16095   0.090000   1.008000
16096       CTL2   124  DPPC   C39 16096  -0.180000  12.011000
16097       HAL2   124  DPPC   H9X 16097   0.090000   1.008000
16098       HAL2   124  DPPC   H9Y 16098   0.090000   1.008000
16099       CTL2   124  DPPC  C310 16099  -0.180000  12.011000
16100       HAL2   124  DPPC  H10X 16100   0.090000   1.008000
16101       HAL2   124  DPPC  H10Y 16101   0.090000   1.008000
16102       CTL2   124  DPPC  C311 16102  -0.180000  12.011000
16103       HAL2   124  DPPC  H11X 16103   0.090000   1.008000
16104       HAL2   124  DPPC  H11Y 16104   0.090000   1.008000
16105       CTL2   124  DPPC  C312 16105  -0.180000  12.011000
16106       HAL2   124  DPPC  H12X 16106   0.090000   1.008000
16107       HAL2   124  DPPC  H12Y 16107   0.090000   1.008000
16108       CTL2   124  DPPC  C313 16108  -0.180000  12.011000
16109       HAL2   124  DPPC  H13X 16109   0.090000   1.008000
16110       HAL2   124  DPPC  H13Y 16110   0.090000   1.008000
16111       CTL2   124  DPPC  C314 16111  -0.180000  12.011000
16112       HAL2   124  DPPC  H14X 16112   0.090000   1.008000
16113       HAL2   124  DPPC  H14Y 16113   0.090000   1.008000
16114       CTL2   124  DPPC  C315 16114  -0.180000  12.011000
16115       HAL2   124  DPPC  H15X 16115   0.090000   1.008000
16116       HAL2   124  DPPC  H15Y 16116   0.090000   1.008000
16117       CTL3   124  DPPC  C316 16117  -0.270000  12.011000
16118       HAL3   124  DPPC  H16X 16118   0.090000   1.008000
16119       HAL3   124  DPPC  H16Y 16119   0.090000   1.008000
16120       HAL3   124  DPPC  H16Z 16120   0.090000   1.008000
16121        NTL   125  DPPC     N 16121  -0.600000  14.007000
16122       CTL5   125  DPPC   C13 16122  -0.350000  12.011000
16123         HL   125  DPPC  H13A 16123   0.250000   1.008000
16124         HL   125  DPPC  H13B 16124   0.250000   1.008000
16125         HL   125  DPPC  H13C 16125   0.250000   1.008000
16126       CTL5   125  DPPC   C14 16126  -0.350000  12.011000
16127         HL   125  DPPC  H14A 16127   0.250000   1.008000
16128         HL   125  DPPC  H14B 16128   0.250000   1.008000
16129         HL   125  DPPC  H14C 16129   0.250000   1.008000
16130       CTL5   125  DPPC   C15 16130  -0.350000  12.011000
16131         HL   125  DPPC  H15A 16131   0.250000   1.008000
16132         HL   125  DPPC  H15B 16132   0.250000   1.008000
16133         HL   125  DPPC  H15C 16133   0.250000   1.008000
16134       CTL2   125  DPPC   C12 16134  -0.100000  12.011000
16135         HL   125  DPPC  H12A 16135   0.250000   1.008000
16136         HL   125  DPPC  H12B 16136   0.250000   1.008000
16137       CTL2   125  DPPC   C11 16137  -0.080000  12.011000
16138       HAL2   125  DPPC  H11A 16138   0.090000   1.008000
16139       HAL2   125  DPPC  H11B 16139   0.090000   1.008000
16140         PL   125  DPPC     P 16140   1.500000  30.974001
16141        O2L   125  DPPC   O13 16141  -0.780000  15.999400
16142        O2L   125  DPPC   O14 16142  -0.780000  15.999400
16143       OSLP   125  DPPC   O11 16143  -0.570000  15.999400
16144       OSLP   125  DPPC   O12 16144  -0.570000  15.999400
16145       CTL2   125  DPPC    C1 16145  -0.080000  12.011000
16146       HAL2   125  DPPC    HA 16146   0.090000   1.008000
16147       HAL2   125  DPPC    HB 16147   0.090000   1.008000
16148       CTL1   125  DPPC    C2 16148   0.170000  12.011000
16149       HAL1   125  DPPC    HS 16149   0.090000   1.008000
16150        OSL   125  DPPC   O21 16150  -0.490000  15.999400
16151         CL   125  DPPC   C21 16151   0.900000  12.011000
16152        OBL   125  DPPC   O22 16152  -0.630000  15.999400
16153       CTL2   125  DPPC   C22 16153  -0.220000  12.011000
16154       HAL2   125  DPPC   H2R 16154   0.090000   1.008000
16155       HAL2   125  DPPC   H2S 16155   0.090000   1.008000
16156       CTL2   125  DPPC    C3 16156   0.080000  12.011000
16157       HAL2   125  DPPC    HX 16157   0.090000   1.008000
16158       HAL2   125  DPPC    HY 16158   0.090000   1.008000
16159        OSL   125  DPPC   O31 16159  -0.490000  15.999400
16160         CL   125  DPPC   C31 16160   0.900000  12.011000
16161        OBL   125  DPPC   O32 16161  -0.630000  15.999400
16162       CTL2   125  DPPC   C32 16162  -0.220000  12.011000
16163       HAL2   125  DPPC   H2X 16163   0.090000   1.008000
16164       HAL2   125  DPPC   H2Y 16164   0.090000   1.008000
16165       CTL2   125  DPPC   C23 16165  -0.180000  12.011000
16166       HAL2   125  DPPC   H3R 16166   0.090000   1.008000
16167       HAL2   125  DPPC   H3S 16167   0.090000   1.008000
16168       CTL2   125  DPPC   C24 16168  -0.180000  12.011000
16169       HAL2   125  DPPC   H4R 16169   0.090000   1.008000
16170       HAL2   125  DPPC   H4S 16170   0.090000   1.008000
16171       CTL2   125  DPPC   C25 16171  -0.180000  12.011000
16172       HAL2   125  DPPC   H5R 16172   0.090000   1.008000
16173       HAL2   125  DPPC   H5S 16173   0.090000   1.008000
16174       CTL2   125  DPPC   C26 16174  -0.180000  12.011000
16175       HAL2   125  DPPC   H6R 16175   0.090000   1.008000
16176       HAL2   125  DPPC   H6S 16176   0.090000   1.008000
16177       CTL2   125  DPPC   C27 16177  -0.180000  12.011000
16178       HAL2   125  DPPC   H7R 16178   0.090000   1.008000
16179       HAL2   125  DPPC   H7S 16179   0.090000   1.008000
16180       CTL2   125  DPPC   C28 16180  -0.180000  12.011000
16181       HAL2   125  DPPC   H8R 16181   0.090000   1.008000
16182       HAL2   125  DPPC   H8S 16182   0.090000   1.008000
16183       CTL2   125  DPPC   C29 16183  -0.180000  12.011000
16184       HAL2   125  DPPC   H9R 16184   0.090000   1.008000
16185       HAL2   125  DPPC   H9S 16185   0.090000   1.008000
16186       CTL2   125  DPPC  C210 16186  -0.180000  12.011000
16187       HAL2   125  DPPC  H10R 16187   0.090000   1.008000
16188       HAL2   125  DPPC  H10S 16188   0.090000   1.008000
16189       CTL2   125  DPPC  C211 16189  -0.180000  12.011000
16190       HAL2   125  DPPC  H11R 16190   0.090000   1.008000
16191       HAL2   125  DPPC  H11S 16191   0.090000   1.008000
16192       CTL2   125  DPPC  C212 16192  -0.180000  12.011000
16193       HAL2   125  DPPC  H12R 16193   0.090000   1.008000
16194       HAL2   125  DPPC  H12S 16194   0.090000   1.008000
16195       CTL2   125  DPPC  C213 16195  -0.180000  12.011000
16196       HAL2   125  DPPC  H13R 16196   0.090000   1.008000
16197       HAL2   125  DPPC  H13S 16197   0.090000   1.008000
16198       CTL2   125  DPPC  C214 16198  -0.180000  12.011000
16199       HAL2   125  DPPC  H14R 16199   0.090000   1.008000
16200       HAL2   125  DPPC  H14S 16200   0.090000   1.008000
16201       CTL2   125  DPPC  C215 16201  -0.180000  12.011000
16202       HAL2   125  DPPC  H15R 16202   0.090000   1.008000
16203       HAL2   125  DPPC  H15S 16203   0.090000   1.008000
16204       CTL3   125  DPPC  C216 16204  -0.270000  12.011000
16205       HAL3   125  DPPC  H16R 16205   0.090000   1.008000
16206       HAL3   125  DPPC  H16S 16206   0.090000   1.008000
16207       HAL3   125  DPPC  H16T 16207   0.090000   1.008000
16208       CTL2   125  DPPC   C33 16208  -0.180000  12.011000
16209       HAL2   125  DPPC   H3X 16209   0.090000   1.008000
16210       HAL2   125  DPPC   H3Y 16210   0.090000   1.008000
16211       CTL2   125  DPPC   C34 16211  -0.180000  12.011000
16212       HAL2   125  DPPC   H4X 16212   0.090000   1.008000
16213       HAL2   125  DPPC   H4Y 16213   0.090000   1.008000
16214       CTL2   125  DPPC   C35 16214  -0.180000  12.011000
16215       HAL2   125  DPPC   H5X 16215   0.090000   1.008000
16216       HAL2   125  DPPC   H5Y 16216   0.090000   1.008000
16217       CTL2   125  DPPC   C36 16217  -0.180000  12.011000
16218       HAL2   125  DPPC   H6X 16218   0.090000   1.008000
16219       HAL2   125  DPPC   H6Y 16219   0.090000   1.008000
16220       CTL2   125  DPPC   C37 16220  -0.180000  12.011000
16221       HAL2   125  DPPC   H7X 16221   0.090000   1.008000
16222       HAL2   125  DPPC   H7Y 16222   0.090000   1.008000
16223       CTL2   125  DPPC   C38 16223  -0.180000  12.011000
16224       HAL2   125  DPPC   H8X 16224   0.090000   1.008000
16225       HAL2   125  DPPC   H8Y 16225   0.090000   1.008000
16226       CTL2   125  DPPC   C39 16226  -0.180000  12.011000
16227       HAL2   125  DPPC   H9X 16227   0.090000   1.008000
16228       HAL2   125  DPPC   H9Y 16228   0.090000   1.008000
16229       CTL2   125  DPPC  C310 16229  -0.180000  12.011000
16230       HAL2   125  DPPC  H10X 16230   0.090000   1.008000
16231       HAL2   125  DPPC  H10Y 16231   0.090000   1.008000
16232       CTL2   125  DPPC  C311 16232  -0.180000  12.011000
16233       HAL2   125  DPPC  H11X 16233   0.090000   1.008000
16234       HAL2   125  DPPC  H11Y 16234   0.090000   1.008000
16235       CTL2   125  DPPC  C312 16235  -0.180000  12.011000
16236       HAL2   125  DPPC  H12X 16236   0.090000   1.008000
16237       HAL2   125  DPPC  H12Y 16237   0.090000   1.008000
16238       CTL2   125  DPPC  C313 16238  -0.180000  12.011000
16239       HAL2   125  DPPC  H13X 16239   0.090000   1.008000
16240       HAL2   125  DPPC  H13Y 16240   0.090000   1.008000
16241       CTL2   125  DPPC  C314 16241  -0.180000  12.011000
16242       HAL2   125  DPPC  H14X 16242   0.090000   1.008000
16243       HAL2   125  DPPC  H14Y 16243   0.090000   1.008000
16244       CTL2   125  DPPC  C315 16244  -0.180000  12.011000
16245       HAL2   125  DPPC  H15X 16245   0.090000   1.008000
16246       HAL2   125  DPPC  H15Y 16246   0.090000   1.008000
16247       CTL3   125  DPPC  C316 16247  -0.270000  12.011000
16248       HAL3   125  DPPC  H16X 16248   0.090000   1.008000
16249       HAL3   125  DPPC  H16Y 16249   0.090000   1.008000
16250       HAL3   125  DPPC  H16Z 16250   0.090000   1.008000
16251        NTL   126  DPPC     N 16251  -0.600000  14.007000
16252       CTL5   126  DPPC   C13 16252  -0.350000  12.011000
16253         HL   126  DPPC  H13A 16253   0.250000   1.008000
16254         HL   126  DPPC  H13B 16254   0.250000   1.008000
16255         HL   126  DPPC  H13C 16255   0.250000   1.008000
16256       CTL5   126  DPPC   C14 16256  -0.350000  12.011000
16257         HL   126  DPPC  H14A 16257   0.250000   1.008000
16258         HL   126  DPPC  H14B 16258   0.250000   1.008000
16259         HL   126  DPPC  H14C 16259   0.250000   1.008000
16260       CTL5   126  DPPC   C15 16260  -0.350000  12.011000
16261         HL   126  DPPC  H15A 16261   0.250000   1.008000
16262         HL   126  DPPC  H15B 16262   0.250000   1.008000
16263         HL   126  DPPC  H15C 16263   0.250000   1.008000
16264       CTL2   126  DPPC   C12 16264  -0.100000  12.011000
16265         HL   126  DPPC  H12A 16265   0.250000   1.008000
16266         HL   126  DPPC  H12B 16266   0.250000   1.008000
16267       CTL2   126  DPPC   C11 16267  -0.080000  12.011000
16268       HAL2   126  DPPC  H11A 16268   0.090000   1.008000
16269       HAL2   126  DPPC  H11B 16269   0.090000   1.008000
16270         PL   126  DPPC     P 16270   1.500000  30.974001
16271        O2L   126  DPPC   O13 16271  -0.780000  15.999400
16272        O2L   126  DPPC   O14 16272  -0.780000  15.999400
16273       OSLP   126  DPPC   O11 16273  -0.570000  15.999400
16274       OSLP   126  DPPC   O12 16274  -0.570000  15.999400
16275       CTL2   126  DPPC    C1 16275  -0.080000  12.011000
16276       HAL2   126  DPPC    HA 16276   0.090000   1.008000
16277       HAL2   126  DPPC    HB 16277   0.090000   1.008000
16278       CTL1   126  DPPC    C2 16278   0.170000  12.011000
16279       HAL1   126  DPPC    HS 16279   0.090000   1.008000
16280        OSL   126  DPPC   O21 16280  -0.490000  15.999400
16281         CL   126  DPPC   C21 16281   0.900000  12.011000
16282        OBL   126  DPPC   O22 16282  -0.630000  15.999400
16283       CTL2   126  DPPC   C22 16283  -0.220000  12.011000
16284       HAL2   126  DPPC   H2R 16284   0.090000   1.008000
16285       HAL2   126  DPPC   H2S 16285   0.090000   1.008000
16286       CTL2   126  DPPC    C3 16286   0.080000  12.011000
16287       HAL2   126  DPPC    HX 16287   0.090000   1.008000
16288       HAL2   126  DPPC    HY 16288   0.090000   1.008000
16289        OSL   126  DPPC   O31 16289  -0.490000  15.999400
16290         CL   126  DPPC   C31 16290   0.900000  12.011000
16291        OBL   126  DPPC   O32 16291  -0.630000  15.999400
16292       CTL2   126  DPPC   C32 16292  -0.220000  12.011000
16293       HAL2   126  DPPC   H2X 16293   0.090000   1.008000
16294       HAL2   126  DPPC   H2Y 16294   0.090000   1.008000
16295       CTL2   126  DPPC   C23 16295  -0.180000  12.011000
16296       HAL2   126  DPPC   H3R 16296   0.090000   1.008000
16297       HAL2   126  DPPC   H3S 16297   0.090000   1.008000
16298       CTL2   126  DPPC   C24 16298  -0.180000  12.011000
16299       HAL2   126  DPPC   H4R 16299   0.090000   1.008000
16300       HAL2   126  DPPC   H4S 16300   0.090000   1.008000
16301       CTL2   126  DPPC   C25 16301  -0.180000  12.011000
16302       HAL2   126  DPPC   H5R 16302   0.090000   1.008000
16303       HAL2   126  DPPC   H5S 16303   0.090000   1.008000
16304       CTL2   126  DPPC   C26 16304  -0.180000  12.011000
16305       HAL2   126  DPPC   H6R 16305   0.090000   1.008000
16306       HAL2   126  DPPC   H6S 16306   0.090000   1.008000
16307       CTL2   126  DPPC   C27 16307  -0.180000  12.011000
16308       HAL2   126  DPPC   H7R 16308   0.090000   1.008000
16309       HAL2   126  DPPC   H7S 16309   0.090000   1.008000
16310       CTL2   126  DPPC   C28 16310  -0.180000  12.011000
16311       HAL2   126  DPPC   H8R 16311   0.090000   1.008000
16312       HAL2   126  DPPC   H8S 16312   0.090000   1.008000
16313       CTL2   126  DPPC   C29 16313  -0.180000  12.011000
16314       HAL2   126  DPPC   H9R 16314   0.090000   1.008000
16315       HAL2   126  DPPC   H9S 16315   0.090000   1.008000
16316       CTL2   126  DPPC  C210 16316  -0.180000  12.011000
16317       HAL2   126  DPPC  H10R 16317   0.090000   1.008000
16318       HAL2   126  DPPC  H10S 16318   0.090000   1.008000
16319       CTL2   126  DPPC  C211 16319  -0.180000  12.011000
16320       HAL2   126  DPPC  H11R 16320   0.090000   1.008000
16321       HAL2   126  DPPC  H11S 16321   0.090000   1.008000
16322       CTL2   126  DPPC  C212 16322  -0.180000  12.011000
16323       HAL2   126  DPPC  H12R 16323   0.090000   1.008000
16324       HAL2   126  DPPC  H12S 16324   0.090000   1.008000
16325       CTL2   126  DPPC  C213 16325  -0.180000  12.011000
16326       HAL2   126  DPPC  H13R 16326   0.090000   1.008000
16327       HAL2   126  DPPC  H13S 16327   0.090000   1.008000
16328       CTL2   126  DPPC  C214 16328  -0.180000  12.011000
16329       HAL2   126  DPPC  H14R 16329   0.090000   1.008000
16330       HAL2   126  DPPC  H14S 16330   0.090000   1.008000
16331       CTL2   126  DPPC  C215 16331  -0.180000  12.011000
16332       HAL2   126  DPPC  H15R 16332   0.090000   1.008000
16333       HAL2   126  DPPC  H15S 16333   0.090000   1.008000
16334       CTL3   126  DPPC  C216 16334  -0.270000  12.011000
16335       HAL3   126  DPPC  H16R 16335   0.090000   1.008000
16336       HAL3   126  DPPC  H16S 16336   0.090000   1.008000
16337       HAL3   126  DPPC  H16T 16337   0.090000   1.008000
16338       CTL2   126  DPPC   C33 16338  -0.180000  12.011000
16339       HAL2   126  DPPC   H3X 16339   0.090000   1.008000
16340       HAL2   126  DPPC   H3Y 16340   0.090000   1.008000
16341       CTL2   126  DPPC   C34 16341  -0.180000  12.011000
16342       HAL2   126  DPPC   H4X 16342   0.090000   1.008000
16343       HAL2   126  DPPC   H4Y 16343   0.090000   1.008000
16344       CTL2   126  DPPC   C35 16344  -0.180000  12.011000
16345       HAL2   126  DPPC   H5X 16345   0.090000   1.008000
16346       HAL2   126  DPPC   H5Y 16346   0.090000   1.008000
16347       CTL2   126  DPPC   C36 16347  -0.180000  12.011000
16348       HAL2   126  DPPC   H6X 16348   0.090000   1.008000
16349       HAL2   126  DPPC   H6Y 16349   0.090000   1.008000
16350       CTL2   126  DPPC   C37 16350  -0.180000  12.011000
16351       HAL2   126  DPPC   H7X 16351   0.090000   1.008000
16352       HAL2   126  DPPC   H7Y 16352   0.090000   1.008000
16353       CTL2   126  DPPC   C38 16353  -0.180000  12.011000
16354       HAL2   126  DPPC   H8X 16354   0.090000   1.008000
16355       HAL2   126  DPPC   H8Y 16355   0.090000   1.008000
16356       CTL2   126  DPPC   C39 16356  -0.180000  12.011000
16357       HAL2   126  DPPC   H9X 16357   0.090000   1.008000
16358       HAL2   126  DPPC   H9Y 16358   0.090000   1.008000
16359       CTL2   126  DPPC  C310 16359  -0.180000  12.011000
16360       HAL2   126  DPPC  H10X 16360   0.090000   1.008000
16361       HAL2   126  DPPC  H10Y 16361   0.090000   1.008000
16362       CTL2   126  DPPC  C311 16362  -0.180000  12.011000
16363       HAL2   126  DPPC  H11X 16363   0.090000   1.008000
16364       HAL2   126  DPPC  H11Y 16364   0.090000   1.008000
16365       CTL2   126  DPPC  C312 16365  -0.180000  12.011000
16366       HAL2   126  DPPC  H12X 16366   0.090000   1.008000
16367       HAL2   126  DPPC  H12Y 16367   0.090000   1.008000
16368       CTL2   126  DPPC  C313 16368  -0.180000  12.011000
16369       HAL2   126  DPPC  H13X 16369   0.090000   1.008000
16370       HAL2   126  DPPC  H13Y 16370   0.090000   1.008000
16371       CTL2   126  DPPC  C314 16371  -0.180000  12.011000
16372       HAL2   126  DPPC  H14X 16372   0.090000   1.008000
16373       HAL2   126  DPPC  H14Y 16373   0.090000   1.008000
16374       CTL2   126  DPPC  C315 16374  -0.180000  12.011000
16375       HAL2   126  DPPC  H15X 16375   0.090000   1.008000
16376       HAL2   126  DPPC  H15Y 16376   0.090000   1.008000
16377       CTL3   126  DPPC  C316 16377  -0.270000  12.011000
16378       HAL3   126  DPPC  H16X 16378   0.090000   1.008000
16379       HAL3   126  DPPC  H16Y 16379   0.090000   1.008000
16380       HAL3   126  DPPC  H16Z 16380   0.090000   1.008000
16381        NTL   127  DPPC     N 16381  -0.600000  14.007000
16382       CTL5   127  DPPC   C13 16382  -0.350000  12.011000
16383         HL   127  DPPC  H13A 16383   0.250000   1.008000
16384         HL   127  DPPC  H13B 16384   0.250000   1.008000
16385         HL   127  DPPC  H13C 16385   0.250000   1.008000
16386       CTL5   127  DPPC   C14 16386  -0.350000  12.011000
16387         HL   127  DPPC  H14A 16387   0.250000   1.008000
16388         HL   127  DPPC  H14B 16388   0.250000   1.008000
16389         HL   127  DPPC  H14C 16389   0.250000   1.008000
16390       CTL5   127  DPPC   C15 16390  -0.350000  12.011000
16391         HL   127  DPPC  H15A 16391   0.250000   1.008000
16392         HL   127  DPPC  H15B 16392   0.250000   1.008000
16393         HL   127  DPPC  H15C 16393   0.250000   1.008000
16394       CTL2   127  DPPC   C12 16394  -0.100000  12.011000
16395         HL   127  DPPC  H12A 16395   0.250000   1.008000
16396         HL   127  DPPC  H12B 16396   0.250000   1.008000
16397       CTL2   127  DPPC   C11 16397  -0.080000  12.011000
16398       HAL2   127  DPPC  H11A 16398   0.090000   1.008000
16399       HAL2   127  DPPC  H11B 16399   0.090000   1.008000
16400         PL   127  DPPC     P 16400   1.500000  30.974001
16401        O2L   127  DPPC   O13 16401  -0.780000  15.999400
16402        O2L   127  DPPC   O14 16402  -0.780000  15.999400
16403       OSLP   127  DPPC   O11 16403  -0.570000  15.999400
16404       OSLP   127  DPPC   O12 16404  -0.570000  15.999400
16405       CTL2   127  DPPC    C1 16405  -0.080000  12.011000
16406       HAL2   127  DPPC    HA 16406   0.090000   1.008000
16407       HAL2   127  DPPC    HB 16407   0.090000   1.008000
16408       CTL1   127  DPPC    C2 16408   0.170000  12.011000
16409       HAL1   127  DPPC    HS 16409   0.090000   1.008000
16410        OSL   127  DPPC   O21 16410  -0.490000  15.999400
16411         CL   127  DPPC   C21 16411   0.900000  12.011000
16412        OBL   127  DPPC   O22 16412  -0.630000  15.999400
16413       CTL2   127  DPPC   C22 16413  -0.220000  12.011000
16414       HAL2   127  DPPC   H2R 16414   0.090000   1.008000
16415       HAL2   127  DPPC   H2S 16415   0.090000   1.008000
16416       CTL2   127  DPPC    C3 16416   0.080000  12.011000
16417       HAL2   127  DPPC    HX 16417   0.090000   1.008000
16418       HAL2   127  DPPC    HY 16418   0.090000   1.008000
16419        OSL   127  DPPC   O31 16419  -0.490000  15.999400
16420         CL   127  DPPC   C31 16420   0.900000  12.011000
16421        OBL   127  DPPC   O32 16421  -0.630000  15.999400
16422       CTL2   127  DPPC   C32 16422  -0.220000  12.011000
16423       HAL2   127  DPPC   H2X 16423   0.090000   1.008000
16424       HAL2   127  DPPC   H2Y 16424   0.090000   1.008000
16425       CTL2   127  DPPC   C23 16425  -0.180000  12.011000
16426       HAL2   127  DPPC   H3R 16426   0.090000   1.008000
16427       HAL2   127  DPPC   H3S 16427   0.090000   1.008000
16428       CTL2   127  DPPC   C24 16428  -0.180000  12.011000
16429       HAL2   127  DPPC   H4R 16429   0.090000   1.008000
16430       HAL2   127  DPPC   H4S 16430   0.090000   1.008000
16431       CTL2   127  DPPC   C25 16431  -0.180000  12.011000
16432       HAL2   127  DPPC   H5R 16432   0.090000   1.008000
16433       HAL2   127  DPPC   H5S 16433   0.090000   1.008000
16434       CTL2   127  DPPC   C26 16434  -0.180000  12.011000
16435       HAL2   127  DPPC   H6R 16435   0.090000   1.008000
16436       HAL2   127  DPPC   H6S 16436   0.090000   1.008000
16437       CTL2   127  DPPC   C27 16437  -0.180000  12.011000
16438       HAL2   127  DPPC   H7R 16438   0.090000   1.008000
16439       HAL2   127  DPPC   H7S 16439   0.090000   1.008000
16440       CTL2   127  DPPC   C28 16440  -0.180000  12.011000
16441       HAL2   127  DPPC   H8R 16441   0.090000   1.008000
16442       HAL2   127  DPPC   H8S 16442   0.090000   1.008000
16443       CTL2   127  DPPC   C29 16443  -0.180000  12.011000
16444       HAL2   127  DPPC   H9R 16444   0.090000   1.008000
16445       HAL2   127  DPPC   H9S 16445   0.090000   1.008000
16446       CTL2   127  DPPC  C210 16446  -0.180000  12.011000
16447       HAL2   127  DPPC  H10R 16447   0.090000   1.008000
16448       HAL2   127  DPPC  H10S 16448   0.090000   1.008000
16449       CTL2   127  DPPC  C211 16449  -0.180000  12.011000
16450       HAL2   127  DPPC  H11R 16450   0.090000   1.008000
16451       HAL2   127  DPPC  H11S 16451   0.090000   1.008000
16452       CTL2   127  DPPC  C212 16452  -0.180000  12.011000
16453       HAL2   127  DPPC  H12R 16453   0.090000   1.008000
16454       HAL2   127  DPPC  H12S 16454   0.090000   1.008000
16455       CTL2   127  DPPC  C213 16455  -0.180000  12.011000
16456       HAL2   127  DPPC  H13R 16456   0.090000   1.008000
16457       HAL2   127  DPPC  H13S 16457   0.090000   1.008000
16458       CTL2   127  DPPC  C214 16458  -0.180000  12.011000
16459       HAL2   127  DPPC  H14R 16459   0.090000   1.008000
16460       HAL2   127  DPPC  H14S 16460   0.090000   1.008000
16461       CTL2   127  DPPC  C215 16461  -0.180000  12.011000
16462       HAL2   127  DPPC  H15R 16462   0.090000   1.008000
16463       HAL2   127  DPPC  H15S 16463   0.090000   1.008000
16464       CTL3   127  DPPC  C216 16464  -0.270000  12.011000
16465       HAL3   127  DPPC  H16R 16465   0.090000   1.008000
16466       HAL3   127  DPPC  H16S 16466   0.090000   1.008000
16467       HAL3   127  DPPC  H16T 16467   0.090000   1.008000
16468       CTL2   127  DPPC   C33 16468  -0.180000  12.011000
16469       HAL2   127  DPPC   H3X 16469   0.090000   1.008000
16470       HAL2   127  DPPC   H3Y 16470   0.090000   1.008000
16471       CTL2   127  DPPC   C34 16471  -0.180000  12.011000
16472       HAL2   127  DPPC   H4X 16472   0.090000   1.008000
16473       HAL2   127  DPPC   H4Y 16473   0.090000   1.008000
16474       CTL2   127  DPPC   C35 16474  -0.180000  12.011000
16475       HAL2   127  DPPC   H5X 16475   0.090000   1.008000
16476       HAL2   127  DPPC   H5Y 16476   0.090000   1.008000
16477       CTL2   127  DPPC   C36 16477  -0.180000  12.011000
16478       HAL2   127  DPPC   H6X 16478   0.090000   1.008000
16479       HAL2   127  DPPC   H6Y 16479   0.090000   1.008000
16480       CTL2   127  DPPC   C37 16480  -0.180000  12.011000
16481       HAL2   127  DPPC   H7X 16481   0.090000   1.008000
16482       HAL2   127  DPPC   H7Y 16482   0.090000   1.008000
16483       CTL2   127  DPPC   C38 16483  -0.180000  12.011000
16484       HAL2   127  DPPC   H8X 16484   0.090000   1.008000
16485       HAL2   127  DPPC   H8Y 16485   0.090000   1.008000
16486       CTL2   127  DPPC   C39 16486  -0.180000  12.011000
16487       HAL2   127  DPPC   H9X 16487   0.090000   1.008000
16488       HAL2   127  DPPC   H9Y 16488   0.090000   1.008000
16489       CTL2   127  DPPC  C310 16489  -0.180000  12.011000
16490       HAL2   127  DPPC  H10X 16490   0.090000   1.008000
16491       HAL2   127  DPPC  H10Y 16491   0.090000   1.008000
16492       CTL2   127  DPPC  C311 16492  -0.180000  12.011000
16493       HAL2   127  DPPC  H11X 16493   0.090000   1.008000
16494       HAL2   127  DPPC  H11Y 16494   0.090000   1.008000
16495       CTL2   127  DPPC  C312 16495  -0.180000  12.011000
16496       HAL2   127  DPPC  H12X 16496   0.090000   1.008000
16497       HAL2   127  DPPC  H12Y 16497   0.090000   1.008000
16498       CTL2   127  DPPC  C313 16498  -0.180000  12.011000
16499       HAL2   127  DPPC  H13X 16499   0.090000   1.008000
16500       HAL2   127  DPPC  H13Y 16500   0.090000   1.008000
16501       CTL2   127  DPPC  C314 16501  -0.180000  12.011000
16502       HAL2   127  DPPC  H14X 16502   0.090000   1.008000
16503       HAL2   127  DPPC  H14Y 16503   0.090000   1.008000
16504       CTL2   127  DPPC  C315 16504  -0.180000  12.011000
16505       HAL2   127  DPPC  H15X 16505   0.090000   1.008000
16506       HAL2   127  DPPC  H15Y 16506   0.090000   1.008000
16507       CTL3   127  DPPC  C316 16507  -0.270000  12.011000
16508       HAL3   127  DPPC  H16X 16508   0.090000   1.008000
16509       HAL3   127  DPPC  H16Y 16509   0.090000   1.008000
16510       HAL3   127  DPPC  H16Z 16510   0.090000   1.008000
16511        NTL   128  DPPC     N 16511  -0.600000  14.007000
16512       CTL5   128  DPPC   C13 16512  -0.350000  12.011000
16513         HL   128  DPPC  H13A 16513   0.250000   1.008000
16514         HL   128  DPPC  H13B 16514   0.250000   1.008000
16515         HL   128  DPPC  H13C 16515   0.250000   1.008000
16516       CTL5   128  DPPC   C14 16516  -0.350000  12.011000
16517         HL   128  DPPC  H14A 16517   0.250000   1.008000
16518         HL   128  DPPC  H14B 16518   0.250000   1.008000
16519         HL   128  DPPC  H14C 16519   0.250000   1.008000
16520       CTL5   128  DPPC   C15 16520  -0.350000  12.011000
16521         HL   128  DPPC  H15A 16521   0.250000   1.008000
16522         HL   128  DPPC  H15B 16522   0.250000   1.008000
16523         HL   128  DPPC  H15C 16523   0.250000   1.008000
16524       CTL2   128  DPPC   C12 16524  -0.100000  12.011000
16525         HL   128  DPPC  H12A 16525   0.250000   1.008000
16526         HL   128  DPPC  H12B 16526   0.250000   1.008000
16527       CTL2   128  DPPC   C11 16527  -0.080000  12.011000
16528       HAL2   128  DPPC  H11A 16528   0.090000   1.008000
16529       HAL2   128  DPPC  H11B 16529   0.090000   1.008000
16530         PL   128  DPPC     P 16530   1.500000  30.974001
16531        O2L   128  DPPC   O13 16531  -0.780000  15.999400
16532        O2L   128  DPPC   O14 16532  -0.780000  15.999400
16533       OSLP   128  DPPC   O11 16533  -0.570000  15.999400
16534       OSLP   128  DPPC   O12 16534  -0.570000  15.999400
16535       CTL2   128  DPPC    C1 16535  -0.080000  12.011000
16536       HAL2   128  DPPC    HA 16536   0.090000   1.008000
16537       HAL2   128  DPPC    HB 16537   0.090000   1.008000
16538       CTL1   128  DPPC    C2 16538   0.170000  12.011000
16539       HAL1   128  DPPC    HS 16539   0.090000   1.008000
16540        OSL   128  DPPC   O21 16540  -0.490000  15.999400
16541         CL   128  DPPC   C21 16541   0.900000  12.011000
16542        OBL   128  DPPC   O22 16542  -0.630000  15.999400
16543       CTL2   128  DPPC   C22 16543  -0.220000  12.011000
16544       HAL2   128  DPPC   H2R 16544   0.090000   1.008000
16545       HAL2   128  DPPC   H2S 16545   0.090000   1.008000
16546       CTL2   128  DPPC    C3 16546   0.080000  12.011000
16547       HAL2   128  DPPC    HX 16547   0.090000   1.008000
16548       HAL2   128  DPPC    HY 16548   0.090000   1.008000
16549        OSL   128  DPPC   O31 16549  -0.490000  15.999400
16550         CL   128  DPPC   C31 16550   0.900000  12.011000
16551        OBL   128  DPPC   O32 16551  -0.630000  15.999400
16552       CTL2   128  DPPC   C32 16552  -0.220000  12.011000
16553       HAL2   128  DPPC   H2X 16553   0.090000   1.008000
16554       HAL2   128  DPPC   H2Y 16554   0.090000   1.008000
16555       CTL2   128  DPPC   C23 16555  -0.180000  12.011000
16556       HAL2   128  DPPC   H3R 16556   0.090000   1.008000
16557       HAL2   128  DPPC   H3S 16557   0.090000   1.008000
16558       CTL2   128  DPPC   C24 16558  -0.180000  12.011000
16559       HAL2   128  DPPC   H4R 16559   0.090000   1.008000
16560       HAL2   128  DPPC   H4S 16560   0.090000   1.008000
16561       CTL2   128  DPPC   C25 16561  -0.180000  12.011000
16562       HAL2   128  DPPC   H5R 16562   0.090000   1.008000
16563       HAL2   128  DPPC   H5S 16563   0.090000   1.008000
16564       CTL2   128  DPPC   C26 16564  -0.180000  12.011000
16565       HAL2   128  DPPC   H6R 16565   0.090000   1.008000
16566       HAL2   128  DPPC   H6S 16566   0.090000   1.008000
16567       CTL2   128  DPPC   C27 16567  -0.180000  12.011000
16568       HAL2   128  DPPC   H7R 16568   0.090000   1.008000
16569       HAL2   128  DPPC   H7S 16569   0.090000   1.008000
16570       CTL2   128  DPPC   C28 16570  -0.180000  12.011000
16571       HAL2   128  DPPC   H8R 16571   0.090000   1.008000
16572       HAL2   128  DPPC   H8S 16572   0.090000   1.008000
16573       CTL2   128  DPPC   C29 16573  -0.180000  12.011000
16574       HAL2   128  DPPC   H9R 16574   0.090000   1.008000
16575       HAL2   128  DPPC   H9S 16575   0.090000   1.008000
16576       CTL2   128  DPPC  C210 16576  -0.180000  12.011000
16577       HAL2   128  DPPC  H10R 16577   0.090000   1.008000
16578       HAL2   128  DPPC  H10S 16578   0.090000   1.008000
16579       CTL2   128  DPPC  C211 16579  -0.180000  12.011000
16580       HAL2   128  DPPC  H11R 16580   0.090000   1.008000
16581       HAL2   128  DPPC  H11S 16581   0.090000   1.008000
16582       CTL2   128  DPPC  C212 16582  -0.180000  12.011000
16583       HAL2   128  DPPC  H12R 16583   0.090000   1.008000
16584       HAL2   128  DPPC  H12S 16584   0.090000   1.008000
16585       CTL2   128  DPPC  C213 16585  -0.180000  12.011000
16586       HAL2   128  DPPC  H13R 16586   0.090000   1.008000
16587       HAL2   128  DPPC  H13S 16587   0.090000   1.008000
16588       CTL2   128  DPPC  C214 16588  -0.180000  12.011000
16589       HAL2   128  DPPC  H14R 16589   0.090000   1.008000
16590       HAL2   128  DPPC  H14S 16590   0.090000   1.008000
16591       CTL2   128  DPPC  C215 16591  -0.180000  12.011000
16592       HAL2   128  DPPC  H15R 16592   0.090000   1.008000
16593       HAL2   128  DPPC  H15S 16593   0.090000   1.008000
16594       CTL3   128  DPPC  C216 16594  -0.270000  12.011000
16595       HAL3   128  DPPC  H16R 16595   0.090000   1.008000
16596       HAL3   128  DPPC  H16S 16596   0.090000   1.008000
16597       HAL3   128  DPPC  H16T 16597   0.090000   1.008000
16598       CTL2   128  DPPC   C33 16598  -0.180000  12.011000
16599       HAL2   128  DPPC   H3X 16599   0.090000   1.008000
16600       HAL2   128  DPPC   H3Y 16600   0.090000   1.008000
16601       CTL2   128  DPPC   C34 16601  -0.180000  12.011000
16602       HAL2   128  DPPC   H4X 16602   0.090000   1.008000
16603       HAL2   128  DPPC   H4Y 16603   0.090000   1.008000
16604       CTL2   128  DPPC   C35 16604  -0.180000  12.011000
16605       HAL2   128  DPPC   H5X 16605   0.090000   1.008000
16606       HAL2   128  DPPC   H5Y 16606   0.090000   1.008000
16607       CTL2   128  DPPC   C36 16607  -0.180000  12.011000
16608       HAL2   128  DPPC   H6X 16608   0.090000   1.008000
16609       HAL2   128  DPPC   H6Y 16609   0.090000   1.008000
16610       CTL2   128  DPPC   C37 16610  -0.180000  12.011000
16611       HAL2   128  DPPC   H7X 16611   0.090000   1.008000
16612       HAL2   128  DPPC   H7Y 16612   0.090000   1.008000
16613       CTL2   128  DPPC   C38 16613  -0.180000  12.011000
16614       HAL2   128  DPPC   H8X 16614   0.090000   1.008000
16615       HAL2   128  DPPC   H8Y 16615   0.090000   1.008000
16616       CTL2   128  DPPC   C39 16616  -0.180000  12.011000
16617       HAL2   128  DPPC   H9X 16617   0.090000   1.008000
16618       HAL2   128  DPPC   H9Y 16618   0.090000   1.008000
16619       CTL2   128  DPPC  C310 16619  -0.180000  12.011000
16620       HAL2   128  DPPC  H10X 16620   0.090000   1.008000
16621       HAL2   128  DPPC  H10Y 16621   0.090000   1.008000
16622       CTL2   128  DPPC  C311 16622  -0.180000  12.011000
16623       HAL2   128  DPPC  H11X 16623   0.090000   1.008000
16624       HAL2   128  DPPC  H11Y 16624   0.090000   1.008000
16625       CTL2   128  DPPC  C312 16625  -0.180000  12.011000
16626       HAL2   128  DPPC  H12X 16626   0.090000   1.008000
16627       HAL2   128  DPPC  H12Y 16627   0.090000   1.008000
16628       CTL2   128  DPPC  C313 16628  -0.180000  12.011000
16629       HAL2   128  DPPC  H13X 16629   0.090000   1.008000
16630       HAL2   128  DPPC  H13Y 16630   0.090000   1.008000
16631       CTL2   128  DPPC  C314 16631  -0.180000  12.011000
16632       HAL2   128  DPPC  H14X 16632   0.090000   1.008000
16633       HAL2   128  DPPC  H14Y 16633   0.090000   1.008000
16634       CTL2   128  DPPC  C315 16634  -0.180000  12.011000
16635       HAL2   128  DPPC  H15X 16635   0.090000   1.008000
16636       HAL2   128  DPPC  H15Y 16636   0.090000   1.008000
16637       CTL3   128  DPPC  C316 16637  -0.270000  12.011000
16638       HAL3   128  DPPC  H16X 16638   0.090000   1.008000
16639       HAL3   128  DPPC  H16Y 16639   0.090000   1.008000
16640       HAL3   128  DPPC  H16Z 16640   0.090000   1.008000
16641        POT   129   POT   POT 16641   1.000000  39.098301
16642        POT   130   POT   POT 16642   1.000000  39.098301
16643        POT   131   POT   POT 16643   1.000000  39.098301
16644        POT   132   POT   POT 16644   1.000000  39.098301
16645        POT   133   POT   POT 16645   1.000000  39.098301
16646        POT   134   POT   POT 16646   1.000000  39.098301
16647        POT   135   POT   POT 16647   1.000000  39.098301
16648        POT   136   POT   POT 16648   1.000000  39.098301
16649        POT   137   POT   POT 16649   1.000000  39.098301
16650        POT   138   POT   POT 16650   1.000000  39.098301
16651        POT   139   POT   POT 16651   1.000000  39.098301
16652        POT   140   POT   POT 16652   1.000000  39.098301
16653        CLA   141   CLA   CLA 16653  -1.000000  35.450001
16654        CLA   142   CLA   CLA 16654  -1.000000  35.450001
16655        CLA   143   CLA   CLA 16655  -1.000000  35.450001
16656        CLA   144   CLA   CLA 16656  -1.000000  35.450001
16657        CLA   145   CLA   CLA 16657  -1.000000  35.450001
16658        CLA   146   CLA   CLA 16658  -1.000000  35.450001
16659        CLA   147   CLA   CLA 16659  -1.000000  35.450001
16660        CLA   148   CLA   CLA 16660  -1.000000  35.450001
16661        CLA   149   CLA   CLA 16661  -1.000000  35.450001
16662        CLA   150   CLA   CLA 16662  -1.000000  35.450001
16663        CLA   151   CLA   CLA 16663  -1.000000  35.450001
16664        CLA   152   CLA   CLA 16664  -1.000000  35.450001
16665         OT   153  TIP3   OH2 16665  -0.834000  15.999400
16666         HT   153  TIP3    H1 16666   0.417000   1.008000
16667         HT   153  TIP3    H2 16667   0.417000   1.008000
16668         OT   154  TIP3   OH2 16668  -0.834000  15.999400
16669         HT   154  TIP3    H1 16669   0.417000   1.008000
16670         HT   154  TIP3    H2 16670   0.417000   1.008000
16671         OT   155  TIP3   OH2 16671  -0.834000  15.999400
16672         HT   155  TIP3    H1 16672   0.417000   1.008000
16673         HT   155  TIP3    H2 16673   0.417000   1.008000
16674         OT   156  TIP3   OH2 16674  -0.834000  15.999400
16675         HT   156  TIP3    H1 16675   0.417000   1.008000
16676         HT   156  TIP3    H2 16676   0.417000   1.008000
16677         OT   157  TIP3   OH2 16677  -0.834000  15.999400
16678         HT   157  TIP3    H1 16678   0.417000   1.008000
16679         HT   157  TIP3    H2 16679   0.417000   1.008000
16680         OT   158  TIP3   OH2 16680  -0.834000  15.999400
16681         HT   158  TIP3    H1 16681   0.417000   1.008000
16682         HT   158  TIP3    H2 16682   0.417000   1.008000
16683         OT   159  TIP3   OH2 16683  -0.834000  15.999400
16684         HT   159  TIP3    H1 16684   0.417000   1.008000
16685         HT   159  TIP3    H2 16685   0.417000   1.008000
16686         OT   160  TIP3   OH2 16686  -0.834000  15.999400
16687         HT   160  TIP3    H1 16687   0.417000   1.008000
16688         HT   160  TIP3    H2 16688   0.417000   1.008000
16689         OT   161  TIP3   OH2 16689  -0.834000  15.999400
16690         HT   161  TIP3    H1 16690   0.417000   1.008000
16691         HT   161  TIP3    H2 16691   0.417000   1.008000
16692         OT   162  TIP3   OH2 16692  -0.834000  15.999400
16693         HT   162  TIP3    H1 16693   0.417000   1.008000
16694         HT   162  TIP3    H2 16694   0.417000   1.008000
16695         OT   163  TIP3   OH2 16695  -0.834000  15.999400
16696         HT   163  TIP3    H1 16696   0.417000   1.008000
16697         HT   163  TIP3    H2 16697   0.417000   1.008000
16698         OT   164  TIP3   OH2 16698  -0.834000  15.999400
16699         HT   164  TIP3    H1 16699   0.417000   1.008000
16700         HT   164  TIP3    H2 16700   0.417000   1.008000
16701         OT   165  TIP3   OH2 16701  -0.834000  15.999400
16702         HT   165  TIP3    H1 16702   0.417000   1.008000
16703         HT   165  TIP3    H2 16703   0.417000   1.008000
16704         OT   166  TIP3   OH2 16704  -0.834000  15.999400
16705         HT   166  TIP3    H1 16705   0.417000   1.008000
16706         HT   166  TIP3    H2 16706   0.417000   1.008000
16707         OT   167  TIP3   OH2 16707  -0.834000  15.999400
16708         HT   167  TIP3    H1 16708   0.417000   1.008000
16709         HT   167  TIP3    H2 16709   0.417000   1.008000
16710         OT   168  TIP3   OH2 16710  -0.834000  15.999400
16711         HT   168  TIP3    H1 16711   0.417000   1.008000
16712         HT   168  TIP3    H2 16712   0.417000   1.008000
16713         OT   169  TIP3   OH2 16713  -0.834000  15.999400
16714         HT   169  TIP3    H1 16714   0.417000   1.008000
16715         HT   169  TIP3    H2 16715   0.417000   1.008000
16716         OT   170  TIP3   OH2 16716  -0.834000  15.999400
16717         HT   170  TIP3    H1 16717   0.417000   1.008000
16718         HT   170  TIP3    H2 16718   0.417000   1.008000
16719         OT   171  TIP3   OH2 16719  -0.834000  15.999400
16720         HT   171  TIP3    H1 16720   0.417000   1.008000
16721         HT   171  TIP3    H2 16721   0.417000   1.008000
16722         OT   172  TIP3   OH2 16722  -0.834000  15.999400
16723         HT   172  TIP3    H1 16723   0.417000   1.008000
16724         HT   172  TIP3    H2 16724   0.417000   1.008000
16725         OT   173  TIP3   OH2 16725  -0.834000  15.999400
16726         HT   173  TIP3    H1 16726   0.417000   1.008000
16727         HT   173  TIP3    H2 16727   0.417000   1.008000
16728         OT   174  TIP3   OH2 16728  -0.834000  15.999400
16729         HT   174  TIP3    H1 16729   0.417000   1.008000
16730         HT   174  TIP3    H2 16730   0.417000   1.008000
16731         OT   175  TIP3   OH2 16731  -0.834000  15.999400
16732         HT   175  TIP3    H1 16732   0.417000   1.008000
16733         HT   175  TIP3    H2 16733   0.417000   1.008000
16734         OT   176  TIP3   OH2 16734  -0.834000  15.999400
16735         HT   176  TIP3    H1 16735   0.417000   1.008000
16736         HT   176  TIP3    H2 16736   0.417000   1.008000
16737         OT   177  TIP3   OH2 16737  -0.834000  15.999400
16738         HT   177  TIP3    H1 16738   0.417000   1.008000
16739         HT   177  TIP3    H2 16739   0.417000   1.008000
16740         OT   178  TIP3   OH2 16740  -0.834000  15.999400
16741         HT   178  TIP3    H1 16741   0.417000   1.008000
16742         HT   178  TIP3    H2 16742   0.417000   1.008000
16743         OT   179  TIP3   OH2 16743  -0.834000  15.999400
16744         HT   179  TIP3    H1 16744   0.417000   1.008000
16745         HT   179  TIP3    H2 16745   0.417000   1.008000
16746         OT   180  TIP3   OH2 16746  -0.834000  15.999400
16747         HT   180  TIP3    H1 16747   0.417000   1.008000
16748         HT   180  TIP3    H2 16748   0.417000   1.008000
16749         OT   181  TIP3   OH2 16749  -0.834000  15.999400
16750         HT   181  TIP3    H1 16750   0.417000   1.008000
16751         HT   181  TIP3    H2 16751   0.417000   1.008000
16752         OT   182  TIP3   OH2 16752  -0.834000  15.999400
16753         HT   182  TIP3    H1 16753   0.417000   1.008000
16754         HT   182  TIP3    H2 16754   0.417000   1.008000
16755         OT   183  TIP3   OH2 16755  -0.834000  15.999400
16756         HT   183  TIP3    H1 16756   0.417000   1.008000
16757         HT   183  TIP3    H2 16757   0.417000   1.008000
16758         OT   184  TIP3   OH2 16758  -0.834000  15.999400
16759         HT   184  TIP3    H1 16759   0.417000   1.008000
16760         HT   184  TIP3    H2 16760   0.417000   1.008000
16761         OT   185  TIP3   OH2 16761  -0.834000  15.999400
16762         HT   185  TIP3    H1 16762   0.417000   1.008000
16763         HT   185  TIP3    H2 16763   0.417000   1.008000
16764         OT   186  TIP3   OH2 16764  -0.834000  15.999400
16765         HT   186  TIP3    H1 16765   0.417000   1.008000
16766         HT   186  TIP3    H2 16766   0.417000   1.008000
16767         OT   187  TIP3   OH2 16767  -0.834000  15.999400
16768         HT   187  TIP3    H1 16768   0.417000   1.008000
16769         HT   187  TIP3    H2 16769   0.417000   1.008000
16770         OT   188  TIP3   OH2 16770  -0.834000  15.999400
16771         HT   188  TIP3    H1 16771   0.417000   1.008000
16772         HT   188  TIP3    H2 16772   0.417000   1.008000
16773         OT   189  TIP3   OH2 16773  -0.834000  15.999400
16774         HT   189  TIP3    H1 16774   0.417000   1.008000
16775         HT   189  TIP3    H2 16775   0.417000   1.008000
16776         OT   190  TIP3   OH2 16776  -0.834000  15.999400
16777         HT   190  TIP3    H1 16777   0.417000   1.008000
16778         HT   190  TIP3    H2 16778   0.417000   1.008000
16779         OT   191  TIP3   OH2 16779  -0.834000  15.999400
16780         HT   191  TIP3    H1 16780   0.417000   1.008000
16781         HT   191  TIP3    H2 16781   0.417000   1.008000
16782         OT   192  TIP3   OH2 16782  -0.834000  15.999400
16783         HT   192  TIP3    H1 16783   0.417000   1.008000
16784         HT   192  TIP3    H2 16784   0.417000   1.008000
16785         OT   193  TIP3   OH2 16785  -0.834000  15.999400
16786         HT   193  TIP3    H1 16786   0.417000   1.008000
16787         HT   193  TIP3    H2 16787   0.417000   1.008000
16788         OT   194  TIP3   OH2 16788  -0.834000  15.999400
16789         HT   194  TIP3    H1 16789   0.417000   1.008000
16790         HT   194  TIP3    H2 16790   0.417000   1.008000
16791         OT   195  TIP3   OH2 16791  -0.834000  15.999400
16792         HT   195  TIP3    H1 16792   0.417000   1.008000
16793         HT   195  TIP3    H2 16793   0.417000   1.008000
16794         OT   196  TIP3   OH2 16794  -0.834000  15.999400
16795         HT   196  TIP3    H1 16795   0.417000   1.008000
16796         HT   196  TIP3    H2 16796   0.417000   1.008000
16797         OT   197  TIP3   OH2 16797  -0.834000  15.999400
16798         HT   197  TIP3    H1 16798   0.417000   1.008000
16799         HT   197  TIP3    H2 16799   0.417000   1.008000
16800         OT   198  TIP3   OH2 16800  -0.834000  15.999400
16801         HT   198  TIP3    H1 16801   0.417000   1.008000
16802         HT   198  TIP3    H2 16802   0.417000   1.008000
16803         OT   199  TIP3   OH2 16803  -0.834000  15.999400
16804         HT   199  TIP3    H1 16804   0.417000   1.008000
16805         HT   199  TIP3    H2 16805   0.417000   1.008000
16806         OT   200  TIP3   OH2 16806  -0.834000  15.999400
16807         HT   200  TIP3    H1 16807   0.417000   1.008000
16808         HT   200  TIP3    H2 16808   0.417000   1.008000
16809         OT   201  TIP3   OH2 16809  -0.834000  15.999400
16810         HT   201  TIP3    H1 16810   0.417000   1.008000
16811         HT   201  TIP3    H2 16811   0.417000   1.008000
16812         OT   202  TIP3   OH2 16812  -0.834000  15.999400
16813         HT   202  TIP3    H1 16813   0.417000   1.008000
16814         HT   202  TIP3    H2 16814   0.417000   1.008000
16815         OT   203  TIP3   OH2 16815  -0.834000  15.999400
16816         HT   203  TIP3    H1 16816   0.417000   1.008000
16817         HT   203  TIP3    H2 16817   0.417000   1.008000
16818         OT   204  TIP3   OH2 16818  -0.834000  15.999400
16819         HT   204  TIP3    H1 16819   0.417000   1.008000
16820         HT   204  TIP3    H2 16820   0.417000   1.008000
16821         OT   205  TIP3   OH2 16821  -0.834000  15.999400
16822         HT   205  TIP3    H1 16822   0.417000   1.008000
16823         HT   205  TIP3    H2 16823   0.417000   1.008000
16824         OT   206  TIP3   OH2 16824  -0.834000  15.999400
16825         HT   206  TIP3    H1 16825   0.417000   1.008000
16826         HT   206  TIP3    H2 16826   0.417000   1.008000
16827         OT   207  TIP3   OH2 16827  -0.834000  15.999400
16828         HT   207  TIP3    H1 16828   0.417000   1.008000
16829         HT   207  TIP3    H2 16829   0.417000   1.008000
16830         OT   208  TIP3   OH2 16830  -0.834000  15.999400
16831         HT   208  TIP3    H1 16831   0.417000   1.008000
16832         HT   208  TIP3    H2 16832   0.417000   1.008000
16833         OT   209  TIP3   OH2 16833  -0.834000  15.999400
16834         HT   209  TIP3    H1 16834   0.417000   1.008000
16835         HT   209  TIP3    H2 16835   0.417000   1.008000
16836         OT   210  TIP3   OH2 16836  -0.834000  15.999400
16837         HT   210  TIP3    H1 16837   0.417000   1.008000
16838         HT   210  TIP3    H2 16838   0.417000   1.008000
16839         OT   211  TIP3   OH2 16839  -0.834000  15.999400
16840         HT   211  TIP3    H1 16840   0.417000   1.008000
16841         HT   211  TIP3    H2 16841   0.417000   1.008000
16842         OT   212  TIP3   OH2 16842  -0.834000  15.999400
16843         HT   212  TIP3    H1 16843   0.417000   1.008000
16844         HT   212  TIP3    H2 16844   0.417000   1.008000
16845         OT   213  TIP3   OH2 16845  -0.834000  15.999400
16846         HT   213  TIP3    H1 16846   0.417000   1.008000
16847         HT   213  TIP3    H2 16847   0.417000   1.008000
16848         OT   214  TIP3   OH2 16848  -0.834000  15.999400
16849         HT   214  TIP3    H1 16849   0.417000   1.008000
16850         HT   214  TIP3    H2 16850   0.417000   1.008000
16851         OT   215  TIP3   OH2 16851  -0.834000  15.999400
16852         HT   215  TIP3    H1 16852   0.417000   1.008000
16853         HT   215  TIP3    H2 16853   0.417000   1.008000
16854         OT   216  TIP3   OH2 16854  -0.834000  15.999400
16855         HT   216  TIP3    H1 16855   0.417000   1.008000
16856         HT   216  TIP3    H2 16856   0.417000   1.008000
16857         OT   217  TIP3   OH2 16857  -0.834000  15.999400
16858         HT   217  TIP3    H1 16858   0.417000   1.008000
16859         HT   217  TIP3    H2 16859   0.417000   1.008000
16860         OT   218  TIP3   OH2 16860  -0.834000  15.999400
16861         HT   218  TIP3    H1 16861   0.417000   1.008000
16862         HT   218  TIP3    H2 16862   0.417000   1.008000
16863         OT   219  TIP3   OH2 16863  -0.834000  15.999400
16864         HT   219  TIP3    H1 16864   0.417000   1.008000
16865         HT   219  TIP3    H2 16865   0.417000   1.008000
16866         OT   220  TIP3   OH2 16866  -0.834000  15.999400
16867         HT   220  TIP3    H1 16867   0.417000   1.008000
16868         HT   220  TIP3    H2 16868   0.417000   1.008000
16869         OT   221  TIP3   OH2 16869  -0.834000  15.999400
16870         HT   221  TIP3    H1 16870   0.417000   1.008000
16871         HT   221  TIP3    H2 16871   0.417000   1.008000
16872         OT   222  TIP3   OH2 16872  -0.834000  15.999400
16873         HT   222  TIP3    H1 16873   0.417000   1.008000
16874         HT   222  TIP3    H2 16874   0.417000   1.008000
16875         OT   223  TIP3   OH2 16875  -0.834000  15.999400
16876         HT   223  TIP3    H1 16876   0.417000   1.008000
16877         HT   223  TIP3    H2 16877   0.417000   1.008000
16878         OT   224  TIP3   OH2 16878  -0.834000  15.999400
16879         HT   224  TIP3    H1 16879   0.417000   1.008000
16880         HT   224  TIP3    H2 16880   0.417000   1.008000
16881         OT   225  TIP3   OH2 16881  -0.834000  15.999400
16882         HT   225  TIP3    H1 16882   0.417000   1.008000
16883         HT   225  TIP3    H2 16883   0.417000   1.008000
16884         OT   226  TIP3   OH2 16884  -0.834000  15.999400
16885         HT   226  TIP3    H1 16885   0.417000   1.008000
16886         HT   226  TIP3    H2 16886   0.417000   1.008000
16887         OT   227  TIP3   OH2 16887  -0.834000  15.999400
16888         HT   227  TIP3    H1 16888   0.417000   1.008000
16889         HT   227  TIP3    H2 16889   0.417000   1.008000
16890         OT   228  TIP3   OH2 16890  -0.834000  15.999400
16891         HT   228  TIP3    H1 16891   0.417000   1.008000
16892         HT   228  TIP3    H2 16892   0.417000   1.008000
16893         OT   229  TIP3   OH2 16893  -0.834000  15.999400
16894         HT   229  TIP3    H1 16894   0.417000   1.008000
16895         HT   229  TIP3    H2 16895   0.417000   1.008000
16896         OT   230  TIP3   OH2 16896  -0.834000  15.999400
16897         HT   230  TIP3    H1 16897   0.417000   1.008000
16898         HT   230  TIP3    H2 16898   0.417000   1.008000
16899         OT   231  TIP3   OH2 16899  -0.834000  15.999400
16900         HT   231  TIP3    H1 16900   0.417000   1.008000
16901         HT   231  TIP3    H2 16901   0.417000   1.008000
16902         OT   232  TIP3   OH2 16902  -0.834000  15.999400
16903         HT   232  TIP3    H1 16903   0.417000   1.008000
16904         HT   232  TIP3    H2 16904   0.417000   1.008000
16905         OT   233  TIP3   OH2 16905  -0.834000  15.999400
16906         HT   233  TIP3    H1 16906   0.417000   1.008000
16907         HT   233  TIP3    H2 16907   0.417000   1.008000
16908         OT   234  TIP3   OH2 16908  -0.834000  15.999400
16909         HT   234  TIP3    H1 16909   0.417000   1.008000
16910         HT   234  TIP3    H2 16910   0.417000   1.008000
16911         OT   235  TIP3   OH2 16911  -0.834000  15.999400
16912         HT   235  TIP3    H1 16912   0.417000   1.008000
16913         HT   235  TIP3    H2 16913   0.417000   1.008000
16914         OT   236  TIP3   OH2 16914  -0.834000  15.999400
16915         HT   236  TIP3    H1 16915   0.417000   1.008000
16916         HT   236  TIP3    H2 16916   0.417000   1.008000
16917         OT   237  TIP3   OH2 16917  -0.834000  15.999400
16918         HT   237  TIP3    H1 16918   0.417000   1.008000
16919         HT   237  TIP3    H2 16919   0.417000   1.008000
16920         OT   238  TIP3   OH2 16920  -0.834000  15.999400
16921         HT   238  TIP3    H1 16921   0.417000   1.008000
16922         HT   238  TIP3    H2 16922   0.417000   1.008000
16923         OT   239  TIP3   OH2 16923  -0.834000  15.999400
16924         HT   239  TIP3    H1 16924   0.417000   1.008000
16925         HT   239  TIP3    H2 16925   0.417000   1.008000
16926         OT   240  TIP3   OH2 16926  -0.834000  15.999400
16927         HT   240  TIP3    H1 16927   0.417000   1.008000
16928         HT   240  TIP3    H2 16928   0.417000   1.008000
16929         OT   241  TIP3   OH2 16929  -0.834000  15.999400
16930         HT   241  TIP3    H1 16930   0.417000   1.008000
16931         HT   241  TIP3    H2 16931   0.417000   1.008000
16932         OT   242  TIP3   OH2 16932  -0.834000  15.999400
16933         HT   242  TIP3    H1 16933   0.417000   1.008000
16934         HT   242  TIP3    H2 16934   0.417000   1.008000
16935         OT   243  TIP3   OH2 16935  -0.834000  15.999400
16936         HT   243  TIP3    H1 16936   0.417000   1.008000
16937         HT   243  TIP3    H2 16937   0.417000   1.008000
16938         OT   244  TIP3   OH2 16938  -0.834000  15.999400
16939         HT   244  TIP3    H1 16939   0.417000   1.008000
16940         HT   244  TIP3    H2 16940   0.417000   1.008000
16941         OT   245  TIP3   OH2 16941  -0.834000  15.999400
16942         HT   245  TIP3    H1 16942   0.417000   1.008000
16943         HT   245  TIP3    H2 16943   0.417000   1.008000
16944         OT   246  TIP3   OH2 16944  -0.834000  15.999400
16945         HT   246  TIP3    H1 16945   0.417000   1.008000
16946         HT   246  TIP3    H2 16946   0.417000   1.008000
16947         OT   247  TIP3   OH2 16947  -0.834000  15.999400
16948         HT   247  TIP3    H1 16948   0.417000   1.008000
16949         HT   247  TIP3    H2 16949   0.417000   1.008000
16950         OT   248  TIP3   OH2 16950  -0.834000  15.999400
16951         HT   248  TIP3    H1 16951   0.417000   1.008000
16952         HT   248  TIP3    H2 16952   0.417000   1.008000
16953         OT   249  TIP3   OH2 16953  -0.834000  15.999400
16954         HT   249  TIP3    H1 16954   0.417000   1.008000
16955         HT   249  TIP3    H2 16955   0.417000   1.008000
16956         OT   250  TIP3   OH2 16956  -0.834000  15.999400
16957         HT   250  TIP3    H1 16957   0.417000   1.008000
16958         HT   250  TIP3    H2 16958   0.417000   1.008000
16959         OT   251  TIP3   OH2 16959  -0.834000  15.999400
16960         HT   251  TIP3    H1 16960   0.417000   1.008000
16961         HT   251  TIP3    H2 16961   0.417000   1.008000
16962         OT   252  TIP3   OH2 16962  -0.834000  15.999400
16963         HT   252  TIP3    H1 16963   0.417000   1.008000
16964         HT   252  TIP3    H2 16964   0.417000   1.008000
16965         OT   253  TIP3   OH2 16965  -0.834000  15.999400
16966         HT   253  TIP3    H1 16966   0.417000   1.008000
16967         HT   253  TIP3    H2 16967   0.417000   1.008000
16968         OT   254  TIP3   OH2 16968  -0.834000  15.999400
16969         HT   254  TIP3    H1 16969   0.417000   1.008000
16970         HT   254  TIP3    H2 16970   0.417000   1.008000
16971         OT   255  TIP3   OH2 16971  -0.834000  15.999400
16972         HT   255  TIP3    H1 16972   0.417000   1.008000
16973         HT   255  TIP3    H2 16973   0.417000   1.008000
16974         OT   256  TIP3   OH2 16974  -0.834000  15.999400
16975         HT   256  TIP3    H1 16975   0.417000   1.008000
16976         HT   256  TIP3    H2 16976   0.417000   1.008000
16977         OT   257  TIP3   OH2 16977  -0.834000  15.999400
16978         HT   257  TIP3    H1 16978   0.417000   1.008000
16979         HT   257  TIP3    H2 16979   0.417000   1.008000
16980         OT   258  TIP3   OH2 16980  -0.834000  15.999400
16981         HT   258  TIP3    H1 16981   0.417000   1.008000
16982         HT   258  TIP3    H2 16982   0.417000   1.008000
16983         OT   259  TIP3   OH2 16983  -0.834000  15.999400
16984         HT   259  TIP3    H1 16984   0.417000   1.008000
16985         HT   259  TIP3    H2 16985   0.417000   1.008000
16986         OT   260  TIP3   OH2 16986  -0.834000  15.999400
16987         HT   260  TIP3    H1 16987   0.417000   1.008000
16988         HT   260  TIP3    H2 16988   0.417000   1.008000
16989         OT   261  TIP3   OH2 16989  -0.834000  15.999400
16990         HT   261  TIP3    H1 16990   0.417000   1.008000
16991         HT   261  TIP3    H2 16991   0.417000   1.008000
16992         OT   262  TIP3   OH2 16992  -0.834000  15.999400
16993         HT   262  TIP3    H1 16993   0.417000   1.008000
16994         HT   262  TIP3    H2 16994   0.417000   1.008000
16995         OT   263  TIP3   OH2 16995  -0.834000  15.999400
16996         HT   263  TIP3    H1 16996   0.417000   1.008000
16997         HT   263  TIP3    H2 16997   0.417000   1.008000
16998         OT   264  TIP3   OH2 16998  -0.834000  15.999400
16999         HT   264  TIP3    H1 16999   0.417000   1.008000
17000         HT   264  TIP3    H2 17000   0.417000   1.008000
17001         OT   265  TIP3   OH2 17001  -0.834000  15.999400
17002         HT   265  TIP3    H1 17002   0.417000   1.008000
17003         HT   265  TIP3    H2 17003   0.417000   1.008000
17004         OT   266  TIP3   OH2 17004  -0.834000  15.999400
17005         HT   266  TIP3    H1 17005   0.417000   1.008000
17006         HT   266  TIP3    H2 17006   0.417000   1.008000
17007         OT   267  TIP3   OH2 17007  -0.834000  15.999400
17008         HT   267  TIP3    H1 17008   0.417000   1.008000
17009         HT   267  TIP3    H2 17009   0.417000   1.008000
17010         OT   268  TIP3   OH2 17010  -0.834000  15.999400
17011         HT   268  TIP3    H1 17011   0.417000   1.008000
17012         HT   268  TIP3    H2 17012   0.417000   1.008000
17013         OT   269  TIP3   OH2 17013  -0.834000  15.999400
17014         HT   269  TIP3    H1 17014   0.417000   1.008000
17015         HT   269  TIP3    H2 17015   0.417000   1.008000
17016         OT   270  TIP3   OH2 17016  -0.834000  15.999400
17017         HT   270  TIP3    H1 17017   0.417000   1.008000
17018         HT   270  TIP3    H2 17018   0.417000   1.008000
17019         OT   271  TIP3   OH2 17019  -0.834000  15.999400
17020         HT   271  TIP3    H1 17020   0.417000   1.008000
17021         HT   271  TIP3    H2 17021   0.417000   1.008000
17022         OT   272  TIP3   OH2 17022  -0.834000  15.999400
17023         HT   272  TIP3    H1 17023   0.417000   1.008000
17024         HT   272  TIP3    H2 17024   0.417000   1.008000
17025         OT   273  TIP3   OH2 17025  -0.834000  15.999400
17026         HT   273  TIP3    H1 17026   0.417000   1.008000
17027         HT   273  TIP3    H2 17027   0.417000   1.008000
17028         OT   274  TIP3   OH2 17028  -0.834000  15.999400
17029         HT   274  TIP3    H1 17029   0.417000   1.008000
17030         HT   274  TIP3    H2 17030   0.417000   1.008000
17031         OT   275  TIP3   OH2 17031  -0.834000  15.999400
17032         HT   275  TIP3    H1 17032   0.417000   1.008000
17033         HT   275  TIP3    H2 17033   0.417000   1.008000
17034         OT   276  TIP3   OH2 17034  -0.834000  15.999400
17035         HT   276  TIP3    H1 17035   0.417000   1.008000
17036         HT   276  TIP3    H2 17036   0.417000   1.008000
17037         OT   277  TIP3   OH2 17037  -0.834000  15.999400
17038         HT   277  TIP3    H1 17038   0.417000   1.008000
17039         HT   277  TIP3    H2 17039   0.417000   1.008000
17040         OT   278  TIP3   OH2 17040  -0.834000  15.999400
17041         HT   278  TIP3    H1 17041   0.417000   1.008000
17042         HT   278  TIP3    H2 17042   0.417000   1.008000
17043         OT   279  TIP3   OH2 17043  -0.834000  15.999400
17044         HT   279  TIP3    H1 17044   0.417000   1.008000
17045         HT   279  TIP3    H2 17045   0.417000   1.008000
17046         OT   280  TIP3   OH2 17046  -0.834000  15.999400
17047         HT   280  TIP3    H1 17047   0.417000   1.008000
17048         HT   280  TIP3    H2 17048   0.417000   1.008000
17049         OT   281  TIP3   OH2 17049  -0.834000  15.999400
17050         HT   281  TIP3    H1 17050   0.417000   1.008000
17051         HT   281  TIP3    H2 17051   0.417000   1.008000
17052         OT   282  TIP3   OH2 17052  -0.834000  15.999400
17053         HT   282  TIP3    H1 17053   0.417000   1.008000
17054         HT   282  TIP3    H2 17054   0.417000   1.008000
17055         OT   283  TIP3   OH2 17055  -0.834000  15.999400
17056         HT   283  TIP3    H1 17056   0.417000   1.008000
17057         HT   283  TIP3    H2 17057   0.417000   1.008000
17058         OT   284  TIP3   OH2 17058  -0.834000  15.999400
17059         HT   284  TIP3    H1 17059   0.417000   1.008000
17060         HT   284  TIP3    H2 17060   0.417000   1.008000
17061         OT   285  TIP3   OH2 17061  -0.834000  15.999400
17062         HT   285  TIP3    H1 17062   0.417000   1.008000
17063         HT   285  TIP3    H2 17063   0.417000   1.008000
17064         OT   286  TIP3   OH2 17064  -0.834000  15.999400
17065         HT   286  TIP3    H1 17065   0.417000   1.008000
17066         HT   286  TIP3    H2 17066   0.417000   1.008000
17067         OT   287  TIP3   OH2 17067  -0.834000  15.999400
17068         HT   287  TIP3    H1 17068   0.417000   1.008000
17069         HT   287  TIP3    H2 17069   0.417000   1.008000
17070         OT   288  TIP3   OH2 17070  -0.834000  15.999400
17071         HT   288  TIP3    H1 17071   0.417000   1.008000
17072         HT   288  TIP3    H2 17072   0.417000   1.008000
17073         OT   289  TIP3   OH2 17073  -0.834000  15.999400
17074         HT   289  TIP3    H1 17074   0.417000   1.008000
17075         HT   289  TIP3    H2 17075   0.417000   1.008000
17076         OT   290  TIP3   OH2 17076  -0.834000  15.999400
17077         HT   290  TIP3    H1 17077   0.417000   1.008000
17078         HT   290  TIP3    H2 17078   0.417000   1.008000
17079         OT   291  TIP3   OH2 17079  -0.834000  15.999400
17080         HT   291  TIP3    H1 17080   0.417000   1.008000
17081         HT   291  TIP3    H2 17081   0.417000   1.008000
17082         OT   292  TIP3   OH2 17082  -0.834000  15.999400
17083         HT   292  TIP3    H1 17083   0.417000   1.008000
17084         HT   292  TIP3    H2 17084   0.417000   1.008000
17085         OT   293  TIP3   OH2 17085  -0.834000  15.999400
17086         HT   293  TIP3    H1 17086   0.417000   1.008000
17087         HT   293  TIP3    H2 17087   0.417000   1.008000
17088         OT   294  TIP3   OH2 17088  -0.834000  15.999400
17089         HT   294  TIP3    H1 17089   0.417000   1.008000
17090         HT   294  TIP3    H2 17090   0.417000   1.008000
17091         OT   295  TIP3   OH2 17091  -0.834000  15.999400
17092         HT   295  TIP3    H1 17092   0.417000   1.008000
17093         HT   295  TIP3    H2 17093   0.417000   1.008000
17094         OT   296  TIP3   OH2 17094  -0.834000  15.999400
17095         HT   296  TIP3    H1 17095   0.417000   1.008000
17096         HT   296  TIP3    H2 17096   0.417000   1.008000
17097         OT   297  TIP3   OH2 17097  -0.834000  15.999400
17098         HT   297  TIP3    H1 17098   0.417000   1.008000
17099         HT   297  TIP3    H2 17099   0.417000   1.008000
17100         OT   298  TIP3   OH2 17100  -0.834000  15.999400
17101         HT   298  TIP3    H1 17101   0.417000   1.008000
17102         HT   298  TIP3    H2 17102   0.417000   1.008000
17103         OT   299  TIP3   OH2 17103  -0.834000  15.999400
17104         HT   299  TIP3    H1 17104   0.417000   1.008000
17105         HT   299  TIP3    H2 17105   0.417000   1.008000
17106         OT   300  TIP3   OH2 17106  -0.834000  15.999400
17107         HT   300  TIP3    H1 17107   0.417000   1.008000
17108         HT   300  TIP3    H2 17108   0.417000   1.008000
17109         OT   301  TIP3   OH2 17109  -0.834000  15.999400
17110         HT   301  TIP3    H1 17110   0.417000   1.008000
17111         HT   301  TIP3    H2 17111   0.417000   1.008000
17112         OT   302  TIP3   OH2 17112  -0.834000  15.999400
17113         HT   302  TIP3    H1 17113   0.417000   1.008000
17114         HT   302  TIP3    H2 17114   0.417000   1.008000
17115         OT   303  TIP3   OH2 17115  -0.834000  15.999400
17116         HT   303  TIP3    H1 17116   0.417000   1.008000
17117         HT   303  TIP3    H2 17117   0.417000   1.008000
17118         OT   304  TIP3   OH2 17118  -0.834000  15.999400
17119         HT   304  TIP3    H1 17119   0.417000   1.008000
17120         HT   304  TIP3    H2 17120   0.417000   1.008000
17121         OT   305  TIP3   OH2 17121  -0.834000  15.999400
17122         HT   305  TIP3    H1 17122   0.417000   1.008000
17123         HT   305  TIP3    H2 17123   0.417000   1.008000
17124         OT   306  TIP3   OH2 17124  -0.834000  15.999400
17125         HT   306  TIP3    H1 17125   0.417000   1.008000
17126         HT   306  TIP3    H2 17126   0.417000   1.008000
17127         OT   307  TIP3   OH2 17127  -0.834000  15.999400
17128         HT   307  TIP3    H1 17128   0.417000   1.008000
17129         HT   307  TIP3    H2 17129   0.417000   1.008000
17130         OT   308  TIP3   OH2 17130  -0.834000  15.999400
17131         HT   308  TIP3    H1 17131   0.417000   1.008000
17132         HT   308  TIP3    H2 17132   0.417000   1.008000
17133         OT   309  TIP3   OH2 17133  -0.834000  15.999400
17134         HT   309  TIP3    H1 17134   0.417000   1.008000
17135         HT   309  TIP3    H2 17135   0.417000   1.008000
17136         OT   310  TIP3   OH2 17136  -0.834000  15.999400
17137         HT   310  TIP3    H1 17137   0.417000   1.008000
17138         HT   310  TIP3    H2 17138   0.417000   1.008000
17139         OT   311  TIP3   OH2 17139  -0.834000  15.999400
17140         HT   311  TIP3    H1 17140   0.417000   1.008000
17141         HT   311  TIP3    H2 17141   0.417000   1.008000
17142         OT   312  TIP3   OH2 17142  -0.834000  15.999400
17143         HT   312  TIP3    H1 17143   0.417000   1.008000
17144         HT   312  TIP3    H2 17144   0.417000   1.008000
17145         OT   313  TIP3   OH2 17145  -0.834000  15.999400
17146         HT   313  TIP3    H1 17146   0.417000   1.008000
17147         HT   313  TIP3    H2 17147   0.417000   1.008000
17148         OT   314  TIP3   OH2 17148  -0.834000  15.999400
17149         HT   314  TIP3    H1 17149   0.417000   1.008000
17150         HT   314  TIP3    H2 17150   0.417000   1.008000
17151         OT   315  TIP3   OH2 17151  -0.834000  15.999400
17152         HT   315  TIP3    H1 17152   0.417000   1.008000
17153         HT   315  TIP3    H2 17153   0.417000   1.008000
17154         OT   316  TIP3   OH2 17154  -0.834000  15.999400
17155         HT   316  TIP3    H1 17155   0.417000   1.008000
17156         HT   316  TIP3    H2 17156   0.417000   1.008000
17157         OT   317  TIP3   OH2 17157  -0.834000  15.999400
17158         HT   317  TIP3    H1 17158   0.417000   1.008000
17159         HT   317  TIP3    H2 17159   0.417000   1.008000
17160         OT   318  TIP3   OH2 17160  -0.834000  15.999400
17161         HT   318  TIP3    H1 17161   0.417000   1.008000
17162         HT   318  TIP3    H2 17162   0.417000   1.008000
17163         OT   319  TIP3   OH2 17163  -0.834000  15.999400
17164         HT   319  TIP3    H1 17164   0.417000   1.008000
17165         HT   319  TIP3    H2 17165   0.417000   1.008000
17166         OT   320  TIP3   OH2 17166  -0.834000  15.999400
17167         HT   320  TIP3    H1 17167   0.417000   1.008000
17168         HT   320  TIP3    H2 17168   0.417000   1.008000
17169         OT   321  TIP3   OH2 17169  -0.834000  15.999400
17170         HT   321  TIP3    H1 17170   0.417000   1.008000
17171         HT   321  TIP3    H2 17171   0.417000   1.008000
17172         OT   322  TIP3   OH2 17172  -0.834000  15.999400
17173         HT   322  TIP3    H1 17173   0.417000   1.008000
17174         HT   322  TIP3    H2 17174   0.417000   1.008000
17175         OT   323  TIP3   OH2 17175  -0.834000  15.999400
17176         HT   323  TIP3    H1 17176   0.417000   1.008000
17177         HT   323  TIP3    H2 17177   0.417000   1.008000
17178         OT   324  TIP3   OH2 17178  -0.834000  15.999400
17179         HT   324  TIP3    H1 17179   0.417000   1.008000
17180         HT   324  TIP3    H2 17180   0.417000   1.008000
17181         OT   325  TIP3   OH2 17181  -0.834000  15.999400
17182         HT   325  TIP3    H1 17182   0.417000   1.008000
17183         HT   325  TIP3    H2 17183   0.417000   1.008000
17184         OT   326  TIP3   OH2 17184  -0.834000  15.999400
17185         HT   326  TIP3    H1 17185   0.417000   1.008000
17186         HT   326  TIP3    H2 17186   0.417000   1.008000
17187         OT   327  TIP3   OH2 17187  -0.834000  15.999400
17188         HT   327  TIP3    H1 17188   0.417000   1.008000
17189         HT   327  TIP3    H2 17189   0.417000   1.008000
17190         OT   328  TIP3   OH2 17190  -0.834000  15.999400
17191         HT   328  TIP3    H1 17191   0.417000   1.008000
17192         HT   328  TIP3    H2 17192   0.417000   1.008000
17193         OT   329  TIP3   OH2 17193  -0.834000  15.999400
17194         HT   329  TIP3    H1 17194   0.417000   1.008000
17195         HT   329  TIP3    H2 17195   0.417000   1.008000
17196         OT   330  TIP3   OH2 17196  -0.834000  15.999400
17197         HT   330  TIP3    H1 17197   0.417000   1.008000
17198         HT   330  TIP3    H2 17198   0.417000   1.008000
17199         OT   331  TIP3   OH2 17199  -0.834000  15.999400
17200         HT   331  TIP3    H1 17200   0.417000   1.008000
17201         HT   331  TIP3    H2 17201   0.417000   1.008000
17202         OT   332  TIP3   OH2 17202  -0.834000  15.999400
17203         HT   332  TIP3    H1 17203   0.417000   1.008000
17204         HT   332  TIP3    H2 17204   0.417000   1.008000
17205         OT   333  TIP3   OH2 17205  -0.834000  15.999400
17206         HT   333  TIP3    H1 17206   0.417000   1.008000
17207         HT   333  TIP3    H2 17207   0.417000   1.008000
17208         OT   334  TIP3   OH2 17208  -0.834000  15.999400
17209         HT   334  TIP3    H1 17209   0.417000   1.008000
17210         HT   334  TIP3    H2 17210   0.417000   1.008000
17211         OT   335  TIP3   OH2 17211  -0.834000  15.999400
17212         HT   335  TIP3    H1 17212   0.417000   1.008000
17213         HT   335  TIP3    H2 17213   0.417000   1.008000
17214         OT   336  TIP3   OH2 17214  -0.834000  15.999400
17215         HT   336  TIP3    H1 17215   0.417000   1.008000
17216         HT   336  TIP3    H2 17216   0.417000   1.008000
17217         OT   337  TIP3   OH2 17217  -0.834000  15.999400
17218         HT   337  TIP3    H1 17218   0.417000   1.008000
17219         HT   337  TIP3    H2 17219   0.417000   1.008000
17220         OT   338  TIP3   OH2 17220  -0.834000  15.999400
17221         HT   338  TIP3    H1 17221   0.417000   1.008000
17222         HT   338  TIP3    H2 17222   0.417000   1.008000
17223         OT   339  TIP3   OH2 17223  -0.834000  15.999400
17224         HT   339  TIP3    H1 17224   0.417000   1.008000
17225         HT   339  TIP3    H2 17225   0.417000   1.008000
17226         OT   340  TIP3   OH2 17226  -0.834000  15.999400
17227         HT   340  TIP3    H1 17227   0.417000   1.008000
17228         HT   340  TIP3    H2 17228   0.417000   1.008000
17229         OT   341  TIP3   OH2 17229  -0.834000  15.999400
17230         HT   341  TIP3    H1 17230   0.417000   1.008000
17231         HT   341  TIP3    H2 17231   0.417000   1.008000
17232         OT   342  TIP3   OH2 17232  -0.834000  15.999400
17233         HT   342  TIP3    H1 17233   0.417000   1.008000
17234         HT   342  TIP3    H2 17234   0.417000   1.008000
17235         OT   343  TIP3   OH2 17235  -0.834000  15.999400
17236         HT   343  TIP3    H1 17236   0.417000   1.008000
17237         HT   343  TIP3    H2 17237   0.417000   1.008000
17238         OT   344  TIP3   OH2 17238  -0.834000  15.999400
17239         HT   344  TIP3    H1 17239   0.417000   1.008000
17240         HT   344  TIP3    H2 17240   0.417000   1.008000
17241         OT   345  TIP3   OH2 17241  -0.834000  15.999400
17242         HT   345  TIP3    H1 17242   0.417000   1.008000
17243         HT   345  TIP3    H2 17243   0.417000   1.008000
17244         OT   346  TIP3   OH2 17244  -0.834000  15.999400
17245         HT   346  TIP3    H1 17245   0.417000   1.008000
17246         HT   346  TIP3    H2 17246   0.417000   1.008000
17247         OT   347  TIP3   OH2 17247  -0.834000  15.999400
17248         HT   347  TIP3    H1 17248   0.417000   1.008000
17249         HT   347  TIP3    H2 17249   0.417000   1.008000
17250         OT   348  TIP3   OH2 17250  -0.834000  15.999400
17251         HT   348  TIP3    H1 17251   0.417000   1.008000
17252         HT   348  TIP3    H2 17252   0.417000   1.008000
17253         OT   349  TIP3   OH2 17253  -0.834000  15.999400
17254         HT   349  TIP3    H1 17254   0.417000   1.008000
17255         HT   349  TIP3    H2 17255   0.417000   1.008000
17256         OT   350  TIP3   OH2 17256  -0.834000  15.999400
17257         HT   350  TIP3    H1 17257   0.417000   1.008000
17258         HT   350  TIP3    H2 17258   0.417000   1.008000
17259         OT   351  TIP3   OH2 17259  -0.834000  15.999400
17260         HT   351  TIP3    H1 17260   0.417000   1.008000
17261         HT   351  TIP3    H2 17261   0.417000   1.008000
17262         OT   352  TIP3   OH2 17262  -0.834000  15.999400
17263         HT   352  TIP3    H1 17263   0.417000   1.008000
17264         HT   352  TIP3    H2 17264   0.417000   1.008000
17265         OT   353  TIP3   OH2 17265  -0.834000  15.999400
17266         HT   353  TIP3    H1 17266   0.417000   1.008000
17267         HT   353  TIP3    H2 17267   0.417000   1.008000
17268         OT   354  TIP3   OH2 17268  -0.834000  15.999400
17269         HT   354  TIP3    H1 17269   0.417000   1.008000
17270         HT   354  TIP3    H2 17270   0.417000   1.008000
17271         OT   355  TIP3   OH2 17271  -0.834000  15.999400
17272         HT   355  TIP3    H1 17272   0.417000   1.008000
17273         HT   355  TIP3    H2 17273   0.417000   1.008000
17274         OT   356  TIP3   OH2 17274  -0.834000  15.999400
17275         HT   356  TIP3    H1 17275   0.417000   1.008000
17276         HT   356  TIP3    H2 17276   0.417000   1.008000
17277         OT   357  TIP3   OH2 17277  -0.834000  15.999400
17278         HT   357  TIP3    H1 17278   0.417000   1.008000
17279         HT   357  TIP3    H2 17279   0.417000   1.008000
17280         OT   358  TIP3   OH2 17280  -0.834000  15.999400
17281         HT   358  TIP3    H1 17281   0.417000   1.008000
17282         HT   358  TIP3    H2 17282   0.417000   1.008000
17283         OT   359  TIP3   OH2 17283  -0.834000  15.999400
17284         HT   359  TIP3    H1 17284   0.417000   1.008000
17285         HT   359  TIP3    H2 17285   0.417000   1.008000
17286         OT   360  TIP3   OH2 17286  -0.834000  15.999400
17287         HT   360  TIP3    H1 17287   0.417000   1.008000
17288         HT   360  TIP3    H2 17288   0.417000   1.008000
17289         OT   361  TIP3   OH2 17289  -0.834000  15.999400
17290         HT   361  TIP3    H1 17290   0.417000   1.008000
17291         HT   361  TIP3    H2 17291   0.417000   1.008000
17292         OT   362  TIP3   OH2 17292  -0.834000  15.999400
17293         HT   362  TIP3    H1 17293   0.417000   1.008000
17294         HT   362  TIP3    H2 17294   0.417000   1.008000
17295         OT   363  TIP3   OH2 17295  -0.834000  15.999400
17296         HT   363  TIP3    H1 17296   0.417000   1.008000
17297         HT   363  TIP3    H2 17297   0.417000   1.008000
17298         OT   364  TIP3   OH2 17298  -0.834000  15.999400
17299         HT   364  TIP3    H1 17299   0.417000   1.008000
17300         HT   364  TIP3    H2 17300   0.417000   1.008000
17301         OT   365  TIP3   OH2 17301  -0.834000  15.999400
17302         HT   365  TIP3    H1 17302   0.417000   1.008000
17303         HT   365  TIP3    H2 17303   0.417000   1.008000
17304         OT   366  TIP3   OH2 17304  -0.834000  15.999400
17305         HT   366  TIP3    H1 17305   0.417000   1.008000
17306         HT   366  TIP3    H2 17306   0.417000   1.008000
17307         OT   367  TIP3   OH2 17307  -0.834000  15.999400
17308         HT   367  TIP3    H1 17308   0.417000   1.008000
17309         HT   367  TIP3    H2 17309   0.417000   1.008000
17310         OT   368  TIP3   OH2 17310  -0.834000  15.999400
17311         HT   368  TIP3    H1 17311   0.417000   1.008000
17312         HT   368  TIP3    H2 17312   0.417000   1.008000
17313         OT   369  TIP3   OH2 17313  -0.834000  15.999400
17314         HT   369  TIP3    H1 17314   0.417000   1.008000
17315         HT   369  TIP3    H2 17315   0.417000   1.008000
17316         OT   370  TIP3   OH2 17316  -0.834000  15.999400
17317         HT   370  TIP3    H1 17317   0.417000   1.008000
17318         HT   370  TIP3    H2 17318   0.417000   1.008000
17319         OT   371  TIP3   OH2 17319  -0.834000  15.999400
17320         HT   371  TIP3    H1 17320   0.417000   1.008000
17321         HT   371  TIP3    H2 17321   0.417000   1.008000
17322         OT   372  TIP3   OH2 17322  -0.834000  15.999400
17323         HT   372  TIP3    H1 17323   0.417000   1.008000
17324         HT   372  TIP3    H2 17324   0.417000   1.008000
17325         OT   373  TIP3   OH2 17325  -0.834000  15.999400
17326         HT   373  TIP3    H1 17326   0.417000   1.008000
17327         HT   373  TIP3    H2 17327   0.417000   1.008000
17328         OT   374  TIP3   OH2 17328  -0.834000  15.999400
17329         HT   374  TIP3    H1 17329   0.417000   1.008000
17330         HT   374  TIP3    H2 17330   0.417000   1.008000
17331         OT   375  TIP3   OH2 17331  -0.834000  15.999400
17332         HT   375  TIP3    H1 17332   0.417000   1.008000
17333         HT   375  TIP3    H2 17333   0.417000   1.008000
17334         OT   376  TIP3   OH2 17334  -0.834000  15.999400
17335         HT   376  TIP3    H1 17335   0.417000   1.008000
17336         HT   376  TIP3    H2 17336   0.417000   1.008000
17337         OT   377  TIP3   OH2 17337  -0.834000  15.999400
17338         HT   377  TIP3    H1 17338   0.417000   1.008000
17339         HT   377  TIP3    H2 17339   0.417000   1.008000
17340         OT   378  TIP3   OH2 17340  -0.834000  15.999400
17341         HT   378  TIP3    H1 17341   0.417000   1.008000
17342         HT   378  TIP3    H2 17342   0.417000   1.008000
17343         OT   379  TIP3   OH2 17343  -0.834000  15.999400
17344         HT   379  TIP3    H1 17344   0.417000   1.008000
17345         HT   379  TIP3    H2 17345   0.417000   1.008000
17346         OT   380  TIP3   OH2 17346  -0.834000  15.999400
17347         HT   380  TIP3    H1 17347   0.417000   1.008000
17348         HT   380  TIP3    H2 17348   0.417000   1.008000
17349         OT   381  TIP3   OH2 17349  -0.834000  15.999400
17350         HT   381  TIP3    H1 17350   0.417000   1.008000
17351         HT   381  TIP3    H2 17351   0.417000   1.008000
17352         OT   382  TIP3   OH2 17352  -0.834000  15.999400
17353         HT   382  TIP3    H1 17353   0.417000   1.008000
17354         HT   382  TIP3    H2 17354   0.417000   1.008000
17355         OT   383  TIP3   OH2 17355  -0.834000  15.999400
17356         HT   383  TIP3    H1 17356   0.417000   1.008000
17357         HT   383  TIP3    H2 17357   0.417000   1.008000
17358         OT   384  TIP3   OH2 17358  -0.834000  15.999400
17359         HT   384  TIP3    H1 17359   0.417000   1.008000
17360         HT   384  TIP3    H2 17360   0.417000   1.008000
17361         OT   385  TIP3   OH2 17361  -0.834000  15.999400
17362         HT   385  TIP3    H1 17362   0.417000   1.008000
17363         HT   385  TIP3    H2 17363   0.417000   1.008000
17364         OT   386  TIP3   OH2 17364  -0.834000  15.999400
17365         HT   386  TIP3    H1 17365   0.417000   1.008000
17366         HT   386  TIP3    H2 17366   0.417000   1.008000
17367         OT   387  TIP3   OH2 17367  -0.834000  15.999400
17368         HT   387  TIP3    H1 17368   0.417000   1.008000
17369         HT   387  TIP3    H2 17369   0.417000   1.008000
17370         OT   388  TIP3   OH2 17370  -0.834000  15.999400
17371         HT   388  TIP3    H1 17371   0.417000   1.008000
17372         HT   388  TIP3    H2 17372   0.417000   1.008000
17373         OT   389  TIP3   OH2 17373  -0.834000  15.999400
17374         HT   389  TIP3    H1 17374   0.417000   1.008000
17375         HT   389  TIP3    H2 17375   0.417000   1.008000
17376         OT   390  TIP3   OH2 17376  -0.834000  15.999400
17377         HT   390  TIP3    H1 17377   0.417000   1.008000
17378         HT   390  TIP3    H2 17378   0.417000   1.008000
17379         OT   391  TIP3   OH2 17379  -0.834000  15.999400
17380         HT   391  TIP3    H1 17380   0.417000   1.008000
17381         HT   391  TIP3    H2 17381   0.417000   1.008000
17382         OT   392  TIP3   OH2 17382  -0.834000  15.999400
17383         HT   392  TIP3    H1 17383   0.417000   1.008000
17384         HT   392  TIP3    H2 17384   0.417000   1.008000
17385         OT   393  TIP3   OH2 17385  -0.834000  15.999400
17386         HT   393  TIP3    H1 17386   0.417000   1.008000
17387         HT   393  TIP3    H2 17387   0.417000   1.008000
17388         OT   394  TIP3   OH2 17388  -0.834000  15.999400
17389         HT   394  TIP3    H1 17389   0.417000   1.008000
17390         HT   394  TIP3    H2 17390   0.417000   1.008000
17391         OT   395  TIP3   OH2 17391  -0.834000  15.999400
17392         HT   395  TIP3    H1 17392   0.417000   1.008000
17393         HT   395  TIP3    H2 17393   0.417000   1.008000
17394         OT   396  TIP3   OH2 17394  -0.834000  15.999400
17395         HT   396  TIP3    H1 17395   0.417000   1.008000
17396         HT   396  TIP3    H2 17396   0.417000   1.008000
17397         OT   397  TIP3   OH2 17397  -0.834000  15.999400
17398         HT   397  TIP3    H1 17398   0.417000   1.008000
17399         HT   397  TIP3    H2 17399   0.417000   1.008000
17400         OT   398  TIP3   OH2 17400  -0.834000  15.999400
17401         HT   398  TIP3    H1 17401   0.417000   1.008000
17402         HT   398  TIP3    H2 17402   0.417000   1.008000
17403         OT   399  TIP3   OH2 17403  -0.834000  15.999400
17404         HT   399  TIP3    H1 17404   0.417000   1.008000
17405         HT   399  TIP3    H2 17405   0.417000   1.008000
17406         OT   400  TIP3   OH2 17406  -0.834000  15.999400
17407         HT   400  TIP3    H1 17407   0.417000   1.008000
17408         HT   400  TIP3    H2 17408   0.417000   1.008000
17409         OT   401  TIP3   OH2 17409  -0.834000  15.999400
17410         HT   401  TIP3    H1 17410   0.417000   1.008000
17411         HT   401  TIP3    H2 17411   0.417000   1.008000
17412         OT   402  TIP3   OH2 17412  -0.834000  15.999400
17413         HT   402  TIP3    H1 17413   0.417000   1.008000
17414         HT   402  TIP3    H2 17414   0.417000   1.008000
17415         OT   403  TIP3   OH2 17415  -0.834000  15.999400
17416         HT   403  TIP3    H1 17416   0.417000   1.008000
17417         HT   403  TIP3    H2 17417   0.417000   1.008000
17418         OT   404  TIP3   OH2 17418  -0.834000  15.999400
17419         HT   404  TIP3    H1 17419   0.417000   1.008000
17420         HT   404  TIP3    H2 17420   0.417000   1.008000
17421         OT   405  TIP3   OH2 17421  -0.834000  15.999400
17422         HT   405  TIP3    H1 17422   0.417000   1.008000
17423         HT   405  TIP3    H2 17423   0.417000   1.008000
17424         OT   406  TIP3   OH2 17424  -0.834000  15.999400
17425         HT   406  TIP3    H1 17425   0.417000   1.008000
17426         HT   406  TIP3    H2 17426   0.417000   1.008000
17427         OT   407  TIP3   OH2 17427  -0.834000  15.999400
17428         HT   407  TIP3    H1 17428   0.417000   1.008000
17429         HT   407  TIP3    H2 17429   0.417000   1.008000
17430         OT   408  TIP3   OH2 17430  -0.834000  15.999400
17431         HT   408  TIP3    H1 17431   0.417000   1.008000
17432         HT   408  TIP3    H2 17432   0.417000   1.008000
17433         OT   409  TIP3   OH2 17433  -0.834000  15.999400
17434         HT   409  TIP3    H1 17434   0.417000   1.008000
17435         HT   409  TIP3    H2 17435   0.417000   1.008000
17436         OT   410  TIP3   OH2 17436  -0.834000  15.999400
17437         HT   410  TIP3    H1 17437   0.417000   1.008000
17438         HT   410  TIP3    H2 17438   0.417000   1.008000
17439         OT   411  TIP3   OH2 17439  -0.834000  15.999400
17440         HT   411  TIP3    H1 17440   0.417000   1.008000
17441         HT   411  TIP3    H2 17441   0.417000   1.008000
17442         OT   412  TIP3   OH2 17442  -0.834000  15.999400
17443         HT   412  TIP3    H1 17443   0.417000   1.008000
17444         HT   412  TIP3    H2 17444   0.417000   1.008000
17445         OT   413  TIP3   OH2 17445  -0.834000  15.999400
17446         HT   413  TIP3    H1 17446   0.417000   1.008000
17447         HT   413  TIP3    H2 17447   0.417000   1.008000
17448         OT   414  TIP3   OH2 17448  -0.834000  15.999400
17449         HT   414  TIP3    H1 17449   0.417000   1.008000
17450         HT   414  TIP3    H2 17450   0.417000   1.008000
17451         OT   415  TIP3   OH2 17451  -0.834000  15.999400
17452         HT   415  TIP3    H1 17452   0.417000   1.008000
17453         HT   415  TIP3    H2 17453   0.417000   1.008000
17454         OT   416  TIP3   OH2 17454  -0.834000  15.999400
17455         HT   416  TIP3    H1 17455   0.417000   1.008000
17456         HT   416  TIP3    H2 17456   0.417000   1.008000
17457         OT   417  TIP3   OH2 17457  -0.834000  15.999400
17458         HT   417  TIP3    H1 17458   0.417000   1.008000
17459         HT   417  TIP3    H2 17459   0.417000   1.008000
17460         OT   418  TIP3   OH2 17460  -0.834000  15.999400
17461         HT   418  TIP3    H1 17461   0.417000   1.008000
17462         HT   418  TIP3    H2 17462   0.417000   1.008000
17463         OT   419  TIP3   OH2 17463  -0.834000  15.999400
17464         HT   419  TIP3    H1 17464   0.417000   1.008000
17465         HT   419  TIP3    H2 17465   0.417000   1.008000
17466         OT   420  TIP3   OH2 17466  -0.834000  15.999400
17467         HT   420  TIP3    H1 17467   0.417000   1.008000
17468         HT   420  TIP3    H2 17468   0.417000   1.008000
17469         OT   421  TIP3   OH2 17469  -0.834000  15.999400
17470         HT   421  TIP3    H1 17470   0.417000   1.008000
17471         HT   421  TIP3    H2 17471   0.417000   1.008000
17472         OT   422  TIP3   OH2 17472  -0.834000  15.999400
17473         HT   422  TIP3    H1 17473   0.417000   1.008000
17474         HT   422  TIP3    H2 17474   0.417000   1.008000
17475         OT   423  TIP3   OH2 17475  -0.834000  15.999400
17476         HT   423  TIP3    H1 17476   0.417000   1.008000
17477         HT   423  TIP3    H2 17477   0.417000   1.008000
17478         OT   424  TIP3   OH2 17478  -0.834000  15.999400
17479         HT   424  TIP3    H1 17479   0.417000   1.008000
17480         HT   424  TIP3    H2 17480   0.417000   1.008000
17481         OT   425  TIP3   OH2 17481  -0.834000  15.999400
17482         HT   425  TIP3    H1 17482   0.417000   1.008000
17483         HT   425  TIP3    H2 17483   0.417000   1.008000
17484         OT   426  TIP3   OH2 17484  -0.834000  15.999400
17485         HT   426  TIP3    H1 17485   0.417000   1.008000
17486         HT   426  TIP3    H2 17486   0.417000   1.008000
17487         OT   427  TIP3   OH2 17487  -0.834000  15.999400
17488         HT   427  TIP3    H1 17488   0.417000   1.008000
17489         HT   427  TIP3    H2 17489   0.417000   1.008000
17490         OT   428  TIP3   OH2 17490  -0.834000  15.999400
17491         HT   428  TIP3    H1 17491   0.417000   1.008000
17492         HT   428  TIP3    H2 17492   0.417000   1.008000
17493         OT   429  TIP3   OH2 17493  -0.834000  15.999400
17494         HT   429  TIP3    H1 17494   0.417000   1.008000
17495         HT   429  TIP3    H2 17495   0.417000   1.008000
17496         OT   430  TIP3   OH2 17496  -0.834000  15.999400
17497         HT   430  TIP3    H1 17497   0.417000   1.008000
17498         HT   430  TIP3    H2 17498   0.417000   1.008000
17499         OT   431  TIP3   OH2 17499  -0.834000  15.999400
17500         HT   431  TIP3    H1 17500   0.417000   1.008000
17501         HT   431  TIP3    H2 17501   0.417000   1.008000
17502         OT   432  TIP3   OH2 17502  -0.834000  15.999400
17503         HT   432  TIP3    H1 17503   0.417000   1.008000
17504         HT   432  TIP3    H2 17504   0.417000   1.008000
17505         OT   433  TIP3   OH2 17505  -0.834000  15.999400
17506         HT   433  TIP3    H1 17506   0.417000   1.008000
17507         HT   433  TIP3    H2 17507   0.417000   1.008000
17508         OT   434  TIP3   OH2 17508  -0.834000  15.999400
17509         HT   434  TIP3    H1 17509   0.417000   1.008000
17510         HT   434  TIP3    H2 17510   0.417000   1.008000
17511         OT   435  TIP3   OH2 17511  -0.834000  15.999400
17512         HT   435  TIP3    H1 17512   0.417000   1.008000
17513         HT   435  TIP3    H2 17513   0.417000   1.008000
17514         OT   436  TIP3   OH2 17514  -0.834000  15.999400
17515         HT   436  TIP3    H1 17515   0.417000   1.008000
17516         HT   436  TIP3    H2 17516   0.417000   1.008000
17517         OT   437  TIP3   OH2 17517  -0.834000  15.999400
17518         HT   437  TIP3    H1 17518   0.417000   1.008000
17519         HT   437  TIP3    H2 17519   0.417000   1.008000
17520         OT   438  TIP3   OH2 17520  -0.834000  15.999400
17521         HT   438  TIP3    H1 17521   0.417000   1.008000
17522         HT   438  TIP3    H2 17522   0.417000   1.008000
17523         OT   439  TIP3   OH2 17523  -0.834000  15.999400
17524         HT   439  TIP3    H1 17524   0.417000   1.008000
17525         HT   439  TIP3    H2 17525   0.417000   1.008000
17526         OT   440  TIP3   OH2 17526  -0.834000  15.999400
17527         HT   440  TIP3    H1 17527   0.417000   1.008000
17528         HT   440  TIP3    H2 17528   0.417000   1.008000
17529         OT   441  TIP3   OH2 17529  -0.834000  15.999400
17530         HT   441  TIP3    H1 17530   0.417000   1.008000
17531         HT   441  TIP3    H2 17531   0.417000   1.008000
17532         OT   442  TIP3   OH2 17532  -0.834000  15.999400
17533         HT   442  TIP3    H1 17533   0.417000   1.008000
17534         HT   442  TIP3    H2 17534   0.417000   1.008000
17535         OT   443  TIP3   OH2 17535  -0.834000  15.999400
17536         HT   443  TIP3    H1 17536   0.417000   1.008000
17537         HT   443  TIP3    H2 17537   0.417000   1.008000
17538         OT   444  TIP3   OH2 17538  -0.834000  15.999400
17539         HT   444  TIP3    H1 17539   0.417000   1.008000
17540         HT   444  TIP3    H2 17540   0.417000   1.008000
17541         OT   445  TIP3   OH2 17541  -0.834000  15.999400
17542         HT   445  TIP3    H1 17542   0.417000   1.008000
17543         HT   445  TIP3    H2 17543   0.417000   1.008000
17544         OT   446  TIP3   OH2 17544  -0.834000  15.999400
17545         HT   446  TIP3    H1 17545   0.417000   1.008000
17546         HT   446  TIP3    H2 17546   0.417000   1.008000
17547         OT   447  TIP3   OH2 17547  -0.834000  15.999400
17548         HT   447  TIP3    H1 17548   0.417000   1.008000
17549         HT   447  TIP3    H2 17549   0.417000   1.008000
17550         OT   448  TIP3   OH2 17550  -0.834000  15.999400
17551         HT   448  TIP3    H1 17551   0.417000   1.008000
17552         HT   448  TIP3    H2 17552   0.417000   1.008000
17553         OT   449  TIP3   OH2 17553  -0.834000  15.999400
17554         HT   449  TIP3    H1 17554   0.417000   1.008000
17555         HT   449  TIP3    H2 17555   0.417000   1.008000
17556         OT   450  TIP3   OH2 17556  -0.834000  15.999400
17557         HT   450  TIP3    H1 17557   0.417000   1.008000
17558         HT   450  TIP3    H2 17558   0.417000   1.008000
17559         OT   451  TIP3   OH2 17559  -0.834000  15.999400
17560         HT   451  TIP3    H1 17560   0.417000   1.008000
17561         HT   451  TIP3    H2 17561   0.417000   1.008000
17562         OT   452  TIP3   OH2 17562  -0.834000  15.999400
17563         HT   452  TIP3    H1 17563   0.417000   1.008000
17564         HT   452  TIP3    H2 17564   0.417000   1.008000
17565         OT   453  TIP3   OH2 17565  -0.834000  15.999400
17566         HT   453  TIP3    H1 17566   0.417000   1.008000
17567         HT   453  TIP3    H2 17567   0.417000   1.008000
17568         OT   454  TIP3   OH2 17568  -0.834000  15.999400
17569         HT   454  TIP3    H1 17569   0.417000   1.008000
17570         HT   454  TIP3    H2 17570   0.417000   1.008000
17571         OT   455  TIP3   OH2 17571  -0.834000  15.999400
17572         HT   455  TIP3    H1 17572   0.417000   1.008000
17573         HT   455  TIP3    H2 17573   0.417000   1.008000
17574         OT   456  TIP3   OH2 17574  -0.834000  15.999400
17575         HT   456  TIP3    H1 17575   0.417000   1.008000
17576         HT   456  TIP3    H2 17576   0.417000   1.008000
17577         OT   457  TIP3   OH2 17577  -0.834000  15.999400
17578         HT   457  TIP3    H1 17578   0.417000   1.008000
17579         HT   457  TIP3    H2 17579   0.417000   1.008000
17580         OT   458  TIP3   OH2 17580  -0.834000  15.999400
17581         HT   458  TIP3    H1 17581   0.417000   1.008000
17582         HT   458  TIP3    H2 17582   0.417000   1.008000
17583         OT   459  TIP3   OH2 17583  -0.834000  15.999400
17584         HT   459  TIP3    H1 17584   0.417000   1.008000
17585         HT   459  TIP3    H2 17585   0.417000   1.008000
17586         OT   460  TIP3   OH2 17586  -0.834000  15.999400
17587         HT   460  TIP3    H1 17587   0.417000   1.008000
17588         HT   460  TIP3    H2 17588   0.417000   1.008000
17589         OT   461  TIP3   OH2 17589  -0.834000  15.999400
17590         HT   461  TIP3    H1 17590   0.417000   1.008000
17591         HT   461  TIP3    H2 17591   0.417000   1.008000
17592         OT   462  TIP3   OH2 17592  -0.834000  15.999400
17593         HT   462  TIP3    H1 17593   0.417000   1.008000
17594         HT   462  TIP3    H2 17594   0.417000   1.008000
17595         OT   463  TIP3   OH2 17595  -0.834000  15.999400
17596         HT   463  TIP3    H1 17596   0.417000   1.008000
17597         HT   463  TIP3    H2 17597   0.417000   1.008000
17598         OT   464  TIP3   OH2 17598  -0.834000  15.999400
17599         HT   464  TIP3    H1 17599   0.417000   1.008000
17600         HT   464  TIP3    H2 17600   0.417000   1.008000
17601         OT   465  TIP3   OH2 17601  -0.834000  15.999400
17602         HT   465  TIP3    H1 17602   0.417000   1.008000
17603         HT   465  TIP3    H2 17603   0.417000   1.008000
17604         OT   466  TIP3   OH2 17604  -0.834000  15.999400
17605         HT   466  TIP3    H1 17605   0.417000   1.008000
17606         HT   466  TIP3    H2 17606   0.417000   1.008000
17607         OT   467  TIP3   OH2 17607  -0.834000  15.999400
17608         HT   467  TIP3    H1 17608   0.417000   1.008000
17609         HT   467  TIP3    H2 17609   0.417000   1.008000
17610         OT   468  TIP3   OH2 17610  -0.834000  15.999400
17611         HT   468  TIP3    H1 17611   0.417000   1.008000
17612         HT   468  TIP3    H2 17612   0.417000   1.008000
17613         OT   469  TIP3   OH2 17613  -0.834000  15.999400
17614         HT   469  TIP3    H1 17614   0.417000   1.008000
17615         HT   469  TIP3    H2 17615   0.417000   1.008000
17616         OT   470  TIP3   OH2 17616  -0.834000  15.999400
17617         HT   470  TIP3    H1 17617   0.417000   1.008000
17618         HT   470  TIP3    H2 17618   0.417000   1.008000
17619         OT   471  TIP3   OH2 17619  -0.834000  15.999400
17620         HT   471  TIP3    H1 17620   0.417000   1.008000
17621         HT   471  TIP3    H2 17621   0.417000   1.008000
17622         OT   472  TIP3   OH2 17622  -0.834000  15.999400
17623         HT   472  TIP3    H1 17623   0.417000   1.008000
17624         HT   472  TIP3    H2 17624   0.417000   1.008000
17625         OT   473  TIP3   OH2 17625  -0.834000  15.999400
17626         HT   473  TIP3    H1 17626   0.417000   1.008000
17627         HT   473  TIP3    H2 17627   0.417000   1.008000
17628         OT   474  TIP3   OH2 17628  -0.834000  15.999400
17629         HT   474  TIP3    H1 17629   0.417000   1.008000
17630         HT   474  TIP3    H2 17630   0.417000   1.008000
17631         OT   475  TIP3   OH2 17631  -0.834000  15.999400
17632         HT   475  TIP3    H1 17632   0.417000   1.008000
17633         HT   475  TIP3    H2 17633   0.417000   1.008000
17634         OT   476  TIP3   OH2 17634  -0.834000  15.999400
17635         HT   476  TIP3    H1 17635   0.417000   1.008000
17636         HT   476  TIP3    H2 17636   0.417000   1.008000
17637         OT   477  TIP3   OH2 17637  -0.834000  15.999400
17638         HT   477  TIP3    H1 17638   0.417000   1.008000
17639         HT   477  TIP3    H2 17639   0.417000   1.008000
17640         OT   478  TIP3   OH2 17640  -0.834000  15.999400
17641         HT   478  TIP3    H1 17641   0.417000   1.008000
17642         HT   478  TIP3    H2 17642   0.417000   1.008000
17643         OT   479  TIP3   OH2 17643  -0.834000  15.999400
17644         HT   479  TIP3    H1 17644   0.417000   1.008000
17645         HT   479  TIP3    H2 17645   0.417000   1.008000
17646         OT   480  TIP3   OH2 17646  -0.834000  15.999400
17647         HT   480  TIP3    H1 17647   0.417000   1.008000
17648         HT   480  TIP3    H2 17648   0.417000   1.008000
17649         OT   481  TIP3   OH2 17649  -0.834000  15.999400
17650         HT   481  TIP3    H1 17650   0.417000   1.008000
17651         HT   481  TIP3    H2 17651   0.417000   1.008000
17652         OT   482  TIP3   OH2 17652  -0.834000  15.999400
17653         HT   482  TIP3    H1 17653   0.417000   1.008000
17654         HT   482  TIP3    H2 17654   0.417000   1.008000
17655         OT   483  TIP3   OH2 17655  -0.834000  15.999400
17656         HT   483  TIP3    H1 17656   0.417000   1.008000
17657         HT   483  TIP3    H2 17657   0.417000   1.008000
17658         OT   484  TIP3   OH2 17658  -0.834000  15.999400
17659         HT   484  TIP3    H1 17659   0.417000   1.008000
17660         HT   484  TIP3    H2 17660   0.417000   1.008000
17661         OT   485  TIP3   OH2 17661  -0.834000  15.999400
17662         HT   485  TIP3    H1 17662   0.417000   1.008000
17663         HT   485  TIP3    H2 17663   0.417000   1.008000
17664         OT   486  TIP3   OH2 17664  -0.834000  15.999400
17665         HT   486  TIP3    H1 17665   0.417000   1.008000
17666         HT   486  TIP3    H2 17666   0.417000   1.008000
17667         OT   487  TIP3   OH2 17667  -0.834000  15.999400
17668         HT   487  TIP3    H1 17668   0.417000   1.008000
17669         HT   487  TIP3    H2 17669   0.417000   1.008000
17670         OT   488  TIP3   OH2 17670  -0.834000  15.999400
17671         HT   488  TIP3    H1 17671   0.417000   1.008000
17672         HT   488  TIP3    H2 17672   0.417000   1.008000
17673         OT   489  TIP3   OH2 17673  -0.834000  15.999400
17674         HT   489  TIP3    H1 17674   0.417000   1.008000
17675         HT   489  TIP3    H2 17675   0.417000   1.008000
17676         OT   490  TIP3   OH2 17676  -0.834000  15.999400
17677         HT   490  TIP3    H1 17677   0.417000   1.008000
17678         HT   490  TIP3    H2 17678   0.417000   1.008000
17679         OT   491  TIP3   OH2 17679  -0.834000  15.999400
17680         HT   491  TIP3    H1 17680   0.417000   1.008000
17681         HT   491  TIP3    H2 17681   0.417000   1.008000
17682         OT   492  TIP3   OH2 17682  -0.834000  15.999400
17683         HT   492  TIP3    H1 17683   0.417000   1.008000
17684         HT   492  TIP3    H2 17684   0.417000   1.008000
17685         OT   493  TIP3   OH2 17685  -0.834000  15.999400
17686         HT   493  TIP3    H1 17686   0.417000   1.008000
17687         HT   493  TIP3    H2 17687   0.417000   1.008000
17688         OT   494  TIP3   OH2 17688  -0.834000  15.999400
17689         HT   494  TIP3    H1 17689   0.417000   1.008000
17690         HT   494  TIP3    H2 17690   0.417000   1.008000
17691         OT   495  TIP3   OH2 17691  -0.834000  15.999400
17692         HT   495  TIP3    H1 17692   0.417000   1.008000
17693         HT   495  TIP3    H2 17693   0.417000   1.008000
17694         OT   496  TIP3   OH2 17694  -0.834000  15.999400
17695         HT   496  TIP3    H1 17695   0.417000   1.008000
17696         HT   496  TIP3    H2 17696   0.417000   1.008000
17697         OT   497  TIP3   OH2 17697  -0.834000  15.999400
17698         HT   497  TIP3    H1 17698   0.417000   1.008000
17699         HT   497  TIP3    H2 17699   0.417000   1.008000
17700         OT   498  TIP3   OH2 17700  -0.834000  15.999400
17701         HT   498  TIP3    H1 17701   0.417000   1.008000
17702         HT   498  TIP3    H2 17702   0.417000   1.008000
17703         OT   499  TIP3   OH2 17703  -0.834000  15.999400
17704         HT   499  TIP3    H1 17704   0.417000   1.008000
17705         HT   499  TIP3    H2 17705   0.417000   1.008000
17706         OT   500  TIP3   OH2 17706  -0.834000  15.999400
17707         HT   500  TIP3    H1 17707   0.417000   1.008000
17708         HT   500  TIP3    H2 17708   0.417000   1.008000
17709         OT   501  TIP3   OH2 17709  -0.834000  15.999400
17710         HT   501  TIP3    H1 17710   0.417000   1.008000
17711         HT   501  TIP3    H2 17711   0.417000   1.008000
17712         OT   502  TIP3   OH2 17712  -0.834000  15.999400
17713         HT   502  TIP3    H1 17713   0.417000   1.008000
17714         HT   502  TIP3    H2 17714   0.417000   1.008000
17715         OT   503  TIP3   OH2 17715  -0.834000  15.999400
17716         HT   503  TIP3    H1 17716   0.417000   1.008000
17717         HT   503  TIP3    H2 17717   0.417000   1.008000
17718         OT   504  TIP3   OH2 17718  -0.834000  15.999400
17719         HT   504  TIP3    H1 17719   0.417000   1.008000
17720         HT   504  TIP3    H2 17720   0.417000   1.008000
17721         OT   505  TIP3   OH2 17721  -0.834000  15.999400
17722         HT   505  TIP3    H1 17722   0.417000   1.008000
17723         HT   505  TIP3    H2 17723   0.417000   1.008000
17724         OT   506  TIP3   OH2 17724  -0.834000  15.999400
17725         HT   506  TIP3    H1 17725   0.417000   1.008000
17726         HT   506  TIP3    H2 17726   0.417000   1.008000
17727         OT   507  TIP3   OH2 17727  -0.834000  15.999400
17728         HT   507  TIP3    H1 17728   0.417000   1.008000
17729         HT   507  TIP3    H2 17729   0.417000   1.008000
17730         OT   508  TIP3   OH2 17730  -0.834000  15.999400
17731         HT   508  TIP3    H1 17731   0.417000   1.008000
17732         HT   508  TIP3    H2 17732   0.417000   1.008000
17733         OT   509  TIP3   OH2 17733  -0.834000  15.999400
17734         HT   509  TIP3    H1 17734   0.417000   1.008000
17735         HT   509  TIP3    H2 17735   0.417000   1.008000
17736         OT   510  TIP3   OH2 17736  -0.834000  15.999400
17737         HT   510  TIP3    H1 17737   0.417000   1.008000
17738         HT   510  TIP3    H2 17738   0.417000   1.008000
17739         OT   511  TIP3   OH2 17739  -0.834000  15.999400
17740         HT   511  TIP3    H1 17740   0.417000   1.008000
17741         HT   511  TIP3    H2 17741   0.417000   1.008000
17742         OT   512  TIP3   OH2 17742  -0.834000  15.999400
17743         HT   512  TIP3    H1 17743   0.417000   1.008000
17744         HT   512  TIP3    H2 17744   0.417000   1.008000
17745         OT   513  TIP3   OH2 17745  -0.834000  15.999400
17746         HT   513  TIP3    H1 17746   0.417000   1.008000
17747         HT   513  TIP3    H2 17747   0.417000   1.008000
17748         OT   514  TIP3   OH2 17748  -0.834000  15.999400
17749         HT   514  TIP3    H1 17749   0.417000   1.008000
17750         HT   514  TIP3    H2 17750   0.417000   1.008000
17751         OT   515  TIP3   OH2 17751  -0.834000  15.999400
17752         HT   515  TIP3    H1 17752   0.417000   1.008000
17753         HT   515  TIP3    H2 17753   0.417000   1.008000
17754         OT   516  TIP3   OH2 17754  -0.834000  15.999400
17755         HT   516  TIP3    H1 17755   0.417000   1.008000
17756         HT   516  TIP3    H2 17756   0.417000   1.008000
17757         OT   517  TIP3   OH2 17757  -0.834000  15.999400
17758         HT   517  TIP3    H1 17758   0.417000   1.008000
17759         HT   517  TIP3    H2 17759   0.417000   1.008000
17760         OT   518  TIP3   OH2 17760  -0.834000  15.999400
17761         HT   518  TIP3    H1 17761   0.417000   1.008000
17762         HT   518  TIP3    H2 17762   0.417000   1.008000
17763         OT   519  TIP3   OH2 17763  -0.834000  15.999400
17764         HT   519  TIP3    H1 17764   0.417000   1.008000
17765         HT   519  TIP3    H2 17765   0.417000   1.008000
17766         OT   520  TIP3   OH2 17766  -0.834000  15.999400
17767         HT   520  TIP3    H1 17767   0.417000   1.008000
17768         HT   520  TIP3    H2 17768   0.417000   1.008000
17769         OT   521  TIP3   OH2 17769  -0.834000  15.999400
17770         HT   521  TIP3    H1 17770   0.417000   1.008000
17771         HT   521  TIP3    H2 17771   0.417000   1.008000
17772         OT   522  TIP3   OH2 17772  -0.834000  15.999400
17773         HT   522  TIP3    H1 17773   0.417000   1.008000
17774         HT   522  TIP3    H2 17774   0.417000   1.008000
17775         OT   523  TIP3   OH2 17775  -0.834000  15.999400
17776         HT   523  TIP3    H1 17776   0.417000   1.008000
17777         HT   523  TIP3    H2 17777   0.417000   1.008000
17778         OT   524  TIP3   OH2 17778  -0.834000  15.999400
17779         HT   524  TIP3    H1 17779   0.417000   1.008000
17780         HT   524  TIP3    H2 17780   0.417000   1.008000
17781         OT   525  TIP3   OH2 17781  -0.834000  15.999400
17782         HT   525  TIP3    H1 17782   0.417000   1.008000
17783         HT   525  TIP3    H2 17783   0.417000   1.008000
17784         OT   526  TIP3   OH2 17784  -0.834000  15.999400
17785         HT   526  TIP3    H1 17785   0.417000   1.008000
17786         HT   526  TIP3    H2 17786   0.417000   1.008000
17787         OT   527  TIP3   OH2 17787  -0.834000  15.999400
17788         HT   527  TIP3    H1 17788   0.417000   1.008000
17789         HT   527  TIP3    H2 17789   0.417000   1.008000
17790         OT   528  TIP3   OH2 17790  -0.834000  15.999400
17791         HT   528  TIP3    H1 17791   0.417000   1.008000
17792         HT   528  TIP3    H2 17792   0.417000   1.008000
17793         OT   529  TIP3   OH2 17793  -0.834000  15.999400
17794         HT   529  TIP3    H1 17794   0.417000   1.008000
17795         HT   529  TIP3    H2 17795   0.417000   1.008000
17796         OT   530  TIP3   OH2 17796  -0.834000  15.999400
17797         HT   530  TIP3    H1 17797   0.417000   1.008000
17798         HT   530  TIP3    H2 17798   0.417000   1.008000
17799         OT   531  TIP3   OH2 17799  -0.834000  15.999400
17800         HT   531  TIP3    H1 17800   0.417000   1.008000
17801         HT   531  TIP3    H2 17801   0.417000   1.008000
17802         OT   532  TIP3   OH2 17802  -0.834000  15.999400
17803         HT   532  TIP3    H1 17803   0.417000   1.008000
17804         HT   532  TIP3    H2 17804   0.417000   1.008000
17805         OT   533  TIP3   OH2 17805  -0.834000  15.999400
17806         HT   533  TIP3    H1 17806   0.417000   1.008000
17807         HT   533  TIP3    H2 17807   0.417000   1.008000
17808         OT   534  TIP3   OH2 17808  -0.834000  15.999400
17809         HT   534  TIP3    H1 17809   0.417000   1.008000
17810         HT   534  TIP3    H2 17810   0.417000   1.008000
17811         OT   535  TIP3   OH2 17811  -0.834000  15.999400
17812         HT   535  TIP3    H1 17812   0.417000   1.008000
17813         HT   535  TIP3    H2 17813   0.417000   1.008000
17814         OT   536  TIP3   OH2 17814  -0.834000  15.999400
17815         HT   536  TIP3    H1 17815   0.417000   1.008000
17816         HT   536  TIP3    H2 17816   0.417000   1.008000
17817         OT   537  TIP3   OH2 17817  -0.834000  15.999400
17818         HT   537  TIP3    H1 17818   0.417000   1.008000
17819         HT   537  TIP3    H2 17819   0.417000   1.008000
17820         OT   538  TIP3   OH2 17820  -0.834000  15.999400
17821         HT   538  TIP3    H1 17821   0.417000   1.008000
17822         HT   538  TIP3    H2 17822   0.417000   1.008000
17823         OT   539  TIP3   OH2 17823  -0.834000  15.999400
17824         HT   539  TIP3    H1 17824   0.417000   1.008000
17825         HT   539  TIP3    H2 17825   0.417000   1.008000
17826         OT   540  TIP3   OH2 17826  -0.834000  15.999400
17827         HT   540  TIP3    H1 17827   0.417000   1.008000
17828         HT   540  TIP3    H2 17828   0.417000   1.008000
17829         OT   541  TIP3   OH2 17829  -0.834000  15.999400
17830         HT   541  TIP3    H1 17830   0.417000   1.008000
17831         HT   541  TIP3    H2 17831   0.417000   1.008000
17832         OT   542  TIP3   OH2 17832  -0.834000  15.999400
17833         HT   542  TIP3    H1 17833   0.417000   1.008000
17834         HT   542  TIP3    H2 17834   0.417000   1.008000
17835         OT   543  TIP3   OH2 17835  -0.834000  15.999400
17836         HT   543  TIP3    H1 17836   0.417000   1.008000
17837         HT   543  TIP3    H2 17837   0.417000   1.008000
17838         OT   544  TIP3   OH2 17838  -0.834000  15.999400
17839         HT   544  TIP3    H1 17839   0.417000   1.008000
17840         HT   544  TIP3    H2 17840   0.417000   1.008000
17841         OT   545  TIP3   OH2 17841  -0.834000  15.999400
17842         HT   545  TIP3    H1 17842   0.417000   1.008000
17843         HT   545  TIP3    H2 17843   0.417000   1.008000
17844         OT   546  TIP3   OH2 17844  -0.834000  15.999400
17845         HT   546  TIP3    H1 17845   0.417000   1.008000
17846         HT   546  TIP3    H2 17846   0.417000   1.008000
17847         OT   547  TIP3   OH2 17847  -0.834000  15.999400
17848         HT   547  TIP3    H1 17848   0.417000   1.008000
17849         HT   547  TIP3    H2 17849   0.417000   1.008000
17850         OT   548  TIP3   OH2 17850  -0.834000  15.999400
17851         HT   548  TIP3    H1 17851   0.417000   1.008000
17852         HT   548  TIP3    H2 17852   0.417000   1.008000
17853         OT   549  TIP3   OH2 17853  -0.834000  15.999400
17854         HT   549  TIP3    H1 17854   0.417000   1.008000
17855         HT   549  TIP3    H2 17855   0.417000   1.008000
17856         OT   550  TIP3   OH2 17856  -0.834000  15.999400
17857         HT   550  TIP3    H1 17857   0.417000   1.008000
17858         HT   550  TIP3    H2 17858   0.417000   1.008000
17859         OT   551  TIP3   OH2 17859  -0.834000  15.999400
17860         HT   551  TIP3    H1 17860   0.417000   1.008000
17861         HT   551  TIP3    H2 17861   0.417000   1.008000
17862         OT   552  TIP3   OH2 17862  -0.834000  15.999400
17863         HT   552  TIP3    H1 17863   0.417000   1.008000
17864         HT   552  TIP3    H2 17864   0.417000   1.008000
17865         OT   553  TIP3   OH2 17865  -0.834000  15.999400
17866         HT   553  TIP3    H1 17866   0.417000   1.008000
17867         HT   553  TIP3    H2 17867   0.417000   1.008000
17868         OT   554  TIP3   OH2 17868  -0.834000  15.999400
17869         HT   554  TIP3    H1 17869   0.417000   1.008000
17870         HT   554  TIP3    H2 17870   0.417000   1.008000
17871         OT   555  TIP3   OH2 17871  -0.834000  15.999400
17872         HT   555  TIP3    H1 17872   0.417000   1.008000
17873         HT   555  TIP3    H2 17873   0.417000   1.008000
17874         OT   556  TIP3   OH2 17874  -0.834000  15.999400
17875         HT   556  TIP3    H1 17875   0.417000   1.008000
17876         HT   556  TIP3    H2 17876   0.417000   1.008000
17877         OT   557  TIP3   OH2 17877  -0.834000  15.999400
17878         HT   557  TIP3    H1 17878   0.417000   1.008000
17879         HT   557  TIP3    H2 17879   0.417000   1.008000
17880         OT   558  TIP3   OH2 17880  -0.834000  15.999400
17881         HT   558  TIP3    H1 17881   0.417000   1.008000
17882         HT   558  TIP3    H2 17882   0.417000   1.008000
17883         OT   559  TIP3   OH2 17883  -0.834000  15.999400
17884         HT   559  TIP3    H1 17884   0.417000   1.008000
17885         HT   559  TIP3    H2 17885   0.417000   1.008000
17886         OT   560  TIP3   OH2 17886  -0.834000  15.999400
17887         HT   560  TIP3    H1 17887   0.417000   1.008000
17888         HT   560  TIP3    H2 17888   0.417000   1.008000
17889         OT   561  TIP3   OH2 17889  -0.834000  15.999400
17890         HT   561  TIP3    H1 17890   0.417000   1.008000
17891         HT   561  TIP3    H2 17891   0.417000   1.008000
17892         OT   562  TIP3   OH2 17892  -0.834000  15.999400
17893         HT   562  TIP3    H1 17893   0.417000   1.008000
17894         HT   562  TIP3    H2 17894   0.417000   1.008000
17895         OT   563  TIP3   OH2 17895  -0.834000  15.999400
17896         HT   563  TIP3    H1 17896   0.417000   1.008000
17897         HT   563  TIP3    H2 17897   0.417000   1.008000
17898         OT   564  TIP3   OH2 17898  -0.834000  15.999400
17899         HT   564  TIP3    H1 17899   0.417000   1.008000
17900         HT   564  TIP3    H2 17900   0.417000   1.008000
17901         OT   565  TIP3   OH2 17901  -0.834000  15.999400
17902         HT   565  TIP3    H1 17902   0.417000   1.008000
17903         HT   565  TIP3    H2 17903   0.417000   1.008000
17904         OT   566  TIP3   OH2 17904  -0.834000  15.999400
17905         HT   566  TIP3    H1 17905   0.417000   1.008000
17906         HT   566  TIP3    H2 17906   0.417000   1.008000
17907         OT   567  TIP3   OH2 17907  -0.834000  15.999400
17908         HT   567  TIP3    H1 17908   0.417000   1.008000
17909         HT   567  TIP3    H2 17909   0.417000   1.008000
17910         OT   568  TIP3   OH2 17910  -0.834000  15.999400
17911         HT   568  TIP3    H1 17911   0.417000   1.008000
17912         HT   568  TIP3    H2 17912   0.417000   1.008000
17913         OT   569  TIP3   OH2 17913  -0.834000  15.999400
17914         HT   569  TIP3    H1 17914   0.417000   1.008000
17915         HT   569  TIP3    H2 17915   0.417000   1.008000
17916         OT   570  TIP3   OH2 17916  -0.834000  15.999400
17917         HT   570  TIP3    H1 17917   0.417000   1.008000
17918         HT   570  TIP3    H2 17918   0.417000   1.008000
17919         OT   571  TIP3   OH2 17919  -0.834000  15.999400
17920         HT   571  TIP3    H1 17920   0.417000   1.008000
17921         HT   571  TIP3    H2 17921   0.417000   1.008000
17922         OT   572  TIP3   OH2 17922  -0.834000  15.999400
17923         HT   572  TIP3    H1 17923   0.417000   1.008000
17924         HT   572  TIP3    H2 17924   0.417000   1.008000
17925         OT   573  TIP3   OH2 17925  -0.834000  15.999400
17926         HT   573  TIP3    H1 17926   0.417000   1.008000
17927         HT   573  TIP3    H2 17927   0.417000   1.008000
17928         OT   574  TIP3   OH2 17928  -0.834000  15.999400
17929         HT   574  TIP3    H1 17929   0.417000   1.008000
17930         HT   574  TIP3    H2 17930   0.417000   1.008000
17931         OT   575  TIP3   OH2 17931  -0.834000  15.999400
17932         HT   575  TIP3    H1 17932   0.417000   1.008000
17933         HT   575  TIP3    H2 17933   0.417000   1.008000
17934         OT   576  TIP3   OH2 17934  -0.834000  15.999400
17935         HT   576  TIP3    H1 17935   0.417000   1.008000
17936         HT   576  TIP3    H2 17936   0.417000   1.008000
17937         OT   577  TIP3   OH2 17937  -0.834000  15.999400
17938         HT   577  TIP3    H1 17938   0.417000   1.008000
17939         HT   577  TIP3    H2 17939   0.417000   1.008000
17940         OT   578  TIP3   OH2 17940  -0.834000  15.999400
17941         HT   578  TIP3    H1 17941   0.417000   1.008000
17942         HT   578  TIP3    H2 17942   0.417000   1.008000
17943         OT   579  TIP3   OH2 17943  -0.834000  15.999400
17944         HT   579  TIP3    H1 17944   0.417000   1.008000
17945         HT   579  TIP3    H2 17945   0.417000   1.008000
17946         OT   580  TIP3   OH2 17946  -0.834000  15.999400
17947         HT   580  TIP3    H1 17947   0.417000   1.008000
17948         HT   580  TIP3    H2 17948   0.417000   1.008000
17949         OT   581  TIP3   OH2 17949  -0.834000  15.999400
17950         HT   581  TIP3    H1 17950   0.417000   1.008000
17951         HT   581  TIP3    H2 17951   0.417000   1.008000
17952         OT   582  TIP3   OH2 17952  -0.834000  15.999400
17953         HT   582  TIP3    H1 17953   0.417000   1.008000
17954         HT   582  TIP3    H2 17954   0.417000   1.008000
17955         OT   583  TIP3   OH2 17955  -0.834000  15.999400
17956         HT   583  TIP3    H1 17956   0.417000   1.008000
17957         HT   583  TIP3    H2 17957   0.417000   1.008000
17958         OT   584  TIP3   OH2 17958  -0.834000  15.999400
17959         HT   584  TIP3    H1 17959   0.417000   1.008000
17960         HT   584  TIP3    H2 17960   0.417000   1.008000
17961         OT   585  TIP3   OH2 17961  -0.834000  15.999400
17962         HT   585  TIP3    H1 17962   0.417000   1.008000
17963         HT   585  TIP3    H2 17963   0.417000   1.008000
17964         OT   586  TIP3   OH2 17964  -0.834000  15.999400
17965         HT   586  TIP3    H1 17965   0.417000   1.008000
17966         HT   586  TIP3    H2 17966   0.417000   1.008000
17967         OT   587  TIP3   OH2 17967  -0.834000  15.999400
17968         HT   587  TIP3    H1 17968   0.417000   1.008000
17969         HT   587  TIP3    H2 17969   0.417000   1.008000
17970         OT   588  TIP3   OH2 17970  -0.834000  15.999400
17971         HT   588  TIP3    H1 17971   0.417000   1.008000
17972         HT   588  TIP3    H2 17972   0.417000   1.008000
17973         OT   589  TIP3   OH2 17973  -0.834000  15.999400
17974         HT   589  TIP3    H1 17974   0.417000   1.008000
17975         HT   589  TIP3    H2 17975   0.417000   1.008000
17976         OT   590  TIP3   OH2 17976  -0.834000  15.999400
17977         HT   590  TIP3    H1 17977   0.417000   1.008000
17978         HT   590  TIP3    H2 17978   0.417000   1.008000
17979         OT   591  TIP3   OH2 17979  -0.834000  15.999400
17980         HT   591  TIP3    H1 17980   0.417000   1.008000
17981         HT   591  TIP3    H2 17981   0.417000   1.008000
17982         OT   592  TIP3   OH2 17982  -0.834000  15.999400
17983         HT   592  TIP3    H1 17983   0.417000   1.008000
17984         HT   592  TIP3    H2 17984   0.417000   1.008000
17985         OT   593  TIP3   OH2 17985  -0.834000  15.999400
17986         HT   593  TIP3    H1 17986   0.417000   1.008000
17987         HT   593  TIP3    H2 17987   0.417000   1.008000
17988         OT   594  TIP3   OH2 17988  -0.834000  15.999400
17989         HT   594  TIP3    H1 17989   0.417000   1.008000
17990         HT   594  TIP3    H2 17990   0.417000   1.008000
17991         OT   595  TIP3   OH2 17991  -0.834000  15.999400
17992         HT   595  TIP3    H1 17992   0.417000   1.008000
17993         HT   595  TIP3    H2 17993   0.417000   1.008000
17994         OT   596  TIP3   OH2 17994  -0.834000  15.999400
17995         HT   596  TIP3    H1 17995   0.417000   1.008000
17996         HT   596  TIP3    H2 17996   0.417000   1.008000
17997         OT   597  TIP3   OH2 17997  -0.834000  15.999400
17998         HT   597  TIP3    H1 17998   0.417000   1.008000
17999         HT   597  TIP3    H2 17999   0.417000   1.008000
18000         OT   598  TIP3   OH2 18000  -0.834000  15.999400
18001         HT   598  TIP3    H1 18001   0.417000   1.008000
18002         HT   598  TIP3    H2 18002   0.417000   1.008000
18003         OT   599  TIP3   OH2 18003  -0.834000  15.999400
18004         HT   599  TIP3    H1 18004   0.417000   1.008000
18005         HT   599  TIP3    H2 18005   0.417000   1.008000
18006         OT   600  TIP3   OH2 18006  -0.834000  15.999400
18007         HT   600  TIP3    H1 18007   0.417000   1.008000
18008         HT   600  TIP3    H2 18008   0.417000   1.008000
18009         OT   601  TIP3   OH2 18009  -0.834000  15.999400
18010         HT   601  TIP3    H1 18010   0.417000   1.008000
18011         HT   601  TIP3    H2 18011   0.417000   1.008000
18012         OT   602  TIP3   OH2 18012  -0.834000  15.999400
18013         HT   602  TIP3    H1 18013   0.417000   1.008000
18014         HT   602  TIP3    H2 18014   0.417000   1.008000
18015         OT   603  TIP3   OH2 18015  -0.834000  15.999400
18016         HT   603  TIP3    H1 18016   0.417000   1.008000
18017         HT   603  TIP3    H2 18017   0.417000   1.008000
18018         OT   604  TIP3   OH2 18018  -0.834000  15.999400
18019         HT   604  TIP3    H1 18019   0.417000   1.008000
18020         HT   604  TIP3    H2 18020   0.417000   1.008000
18021         OT   605  TIP3   OH2 18021  -0.834000  15.999400
18022         HT   605  TIP3    H1 18022   0.417000   1.008000
18023         HT   605  TIP3    H2 18023   0.417000   1.008000
18024         OT   606  TIP3   OH2 18024  -0.834000  15.999400
18025         HT   606  TIP3    H1 18025   0.417000   1.008000
18026         HT   606  TIP3    H2 18026   0.417000   1.008000
18027         OT   607  TIP3   OH2 18027  -0.834000  15.999400
18028         HT   607  TIP3    H1 18028   0.417000   1.008000
18029         HT   607  TIP3    H2 18029   0.417000   1.008000
18030         OT   608  TIP3   OH2 18030  -0.834000  15.999400
18031         HT   608  TIP3    H1 18031   0.417000   1.008000
18032         HT   608  TIP3    H2 18032   0.417000   1.008000
18033         OT   609  TIP3   OH2 18033  -0.834000  15.999400
18034         HT   609  TIP3    H1 18034   0.417000   1.008000
18035         HT   609  TIP3    H2 18035   0.417000   1.008000
18036         OT   610  TIP3   OH2 18036  -0.834000  15.999400
18037         HT   610  TIP3    H1 18037   0.417000   1.008000
18038         HT   610  TIP3    H2 18038   0.417000   1.008000
18039         OT   611  TIP3   OH2 18039  -0.834000  15.999400
18040         HT   611  TIP3    H1 18040   0.417000   1.008000
18041         HT   611  TIP3    H2 18041   0.417000   1.008000
18042         OT   612  TIP3   OH2 18042  -0.834000  15.999400
18043         HT   612  TIP3    H1 18043   0.417000   1.008000
18044         HT   612  TIP3    H2 18044   0.417000   1.008000
18045         OT   613  TIP3   OH2 18045  -0.834000  15.999400
18046         HT   613  TIP3    H1 18046   0.417000   1.008000
18047         HT   613  TIP3    H2 18047   0.417000   1.008000
18048         OT   614  TIP3   OH2 18048  -0.834000  15.999400
18049         HT   614  TIP3    H1 18049   0.417000   1.008000
18050         HT   614  TIP3    H2 18050   0.417000   1.008000
18051         OT   615  TIP3   OH2 18051  -0.834000  15.999400
18052         HT   615  TIP3    H1 18052   0.417000   1.008000
18053         HT   615  TIP3    H2 18053   0.417000   1.008000
18054         OT   616  TIP3   OH2 18054  -0.834000  15.999400
18055         HT   616  TIP3    H1 18055   0.417000   1.008000
18056         HT   616  TIP3    H2 18056   0.417000   1.008000
18057         OT   617  TIP3   OH2 18057  -0.834000  15.999400
18058         HT   617  TIP3    H1 18058   0.417000   1.008000
18059         HT   617  TIP3    H2 18059   0.417000   1.008000
18060         OT   618  TIP3   OH2 18060  -0.834000  15.999400
18061         HT   618  TIP3    H1 18061   0.417000   1.008000
18062         HT   618  TIP3    H2 18062   0.417000   1.008000
18063         OT   619  TIP3   OH2 18063  -0.834000  15.999400
18064         HT   619  TIP3    H1 18064   0.417000   1.008000
18065         HT   619  TIP3    H2 18065   0.417000   1.008000
18066         OT   620  TIP3   OH2 18066  -0.834000  15.999400
18067         HT   620  TIP3    H1 18067   0.417000   1.008000
18068         HT   620  TIP3    H2 18068   0.417000   1.008000
18069         OT   621  TIP3   OH2 18069  -0.834000  15.999400
18070         HT   621  TIP3    H1 18070   0.417000   1.008000
18071         HT   621  TIP3    H2 18071   0.417000   1.008000
18072         OT   622  TIP3   OH2 18072  -0.834000  15.999400
18073         HT   622  TIP3    H1 18073   0.417000   1.008000
18074         HT   622  TIP3    H2 18074   0.417000   1.008000
18075         OT   623  TIP3   OH2 18075  -0.834000  15.999400
18076         HT   623  TIP3    H1 18076   0.417000   1.008000
18077         HT   623  TIP3    H2 18077   0.417000   1.008000
18078         OT   624  TIP3   OH2 18078  -0.834000  15.999400
18079         HT   624  TIP3    H1 18079   0.417000   1.008000
18080         HT   624  TIP3    H2 18080   0.417000   1.008000
18081         OT   625  TIP3   OH2 18081  -0.834000  15.999400
18082         HT   625  TIP3    H1 18082   0.417000   1.008000
18083         HT   625  TIP3    H2 18083   0.417000   1.008000
18084         OT   626  TIP3   OH2 18084  -0.834000  15.999400
18085         HT   626  TIP3    H1 18085   0.417000   1.008000
18086         HT   626  TIP3    H2 18086   0.417000   1.008000
18087         OT   627  TIP3   OH2 18087  -0.834000  15.999400
18088         HT   627  TIP3    H1 18088   0.417000   1.008000
18089         HT   627  TIP3    H2 18089   0.417000   1.008000
18090         OT   628  TIP3   OH2 18090  -0.834000  15.999400
18091         HT   628  TIP3    H1 18091   0.417000   1.008000
18092         HT   628  TIP3    H2 18092   0.417000   1.008000
18093         OT   629  TIP3   OH2 18093  -0.834000  15.999400
18094         HT   629  TIP3    H1 18094   0.417000   1.008000
18095         HT   629  TIP3    H2 18095   0.417000   1.008000
18096         OT   630  TIP3   OH2 18096  -0.834000  15.999400
18097         HT   630  TIP3    H1 18097   0.417000   1.008000
18098         HT   630  TIP3    H2 18098   0.417000   1.008000
18099         OT   631  TIP3   OH2 18099  -0.834000  15.999400
18100         HT   631  TIP3    H1 18100   0.417000   1.008000
18101         HT   631  TIP3    H2 18101   0.417000   1.008000
18102         OT   632  TIP3   OH2 18102  -0.834000  15.999400
18103         HT   632  TIP3    H1 18103   0.417000   1.008000
18104         HT   632  TIP3    H2 18104   0.417000   1.008000
18105         OT   633  TIP3   OH2 18105  -0.834000  15.999400
18106         HT   633  TIP3    H1 18106   0.417000   1.008000
18107         HT   633  TIP3    H2 18107   0.417000   1.008000
18108         OT   634  TIP3   OH2 18108  -0.834000  15.999400
18109         HT   634  TIP3    H1 18109   0.417000   1.008000
18110         HT   634  TIP3    H2 18110   0.417000   1.008000
18111         OT   635  TIP3   OH2 18111  -0.834000  15.999400
18112         HT   635  TIP3    H1 18112   0.417000   1.008000
18113         HT   635  TIP3    H2 18113   0.417000   1.008000
18114         OT   636  TIP3   OH2 18114  -0.834000  15.999400
18115         HT   636  TIP3    H1 18115   0.417000   1.008000
18116         HT   636  TIP3    H2 18116   0.417000   1.008000
18117         OT   637  TIP3   OH2 18117  -0.834000  15.999400
18118         HT   637  TIP3    H1 18118   0.417000   1.008000
18119         HT   637  TIP3    H2 18119   0.417000   1.008000
18120         OT   638  TIP3   OH2 18120  -0.834000  15.999400
18121         HT   638  TIP3    H1 18121   0.417000   1.008000
18122         HT   638  TIP3    H2 18122   0.417000   1.008000
18123         OT   639  TIP3   OH2 18123  -0.834000  15.999400
18124         HT   639  TIP3    H1 18124   0.417000   1.008000
18125         HT   639  TIP3    H2 18125   0.417000   1.008000
18126         OT   640  TIP3   OH2 18126  -0.834000  15.999400
18127         HT   640  TIP3    H1 18127   0.417000   1.008000
18128         HT   640  TIP3    H2 18128   0.417000   1.008000
18129         OT   641  TIP3   OH2 18129  -0.834000  15.999400
18130         HT   641  TIP3    H1 18130   0.417000   1.008000
18131         HT   641  TIP3    H2 18131   0.417000   1.008000
18132         OT   642  TIP3   OH2 18132  -0.834000  15.999400
18133         HT   642  TIP3    H1 18133   0.417000   1.008000
18134         HT   642  TIP3    H2 18134   0.417000   1.008000
18135         OT   643  TIP3   OH2 18135  -0.834000  15.999400
18136         HT   643  TIP3    H1 18136   0.417000   1.008000
18137         HT   643  TIP3    H2 18137   0.417000   1.008000
18138         OT   644  TIP3   OH2 18138  -0.834000  15.999400
18139         HT   644  TIP3    H1 18139   0.417000   1.008000
18140         HT   644  TIP3    H2 18140   0.417000   1.008000
18141         OT   645  TIP3   OH2 18141  -0.834000  15.999400
18142         HT   645  TIP3    H1 18142   0.417000   1.008000
18143         HT   645  TIP3    H2 18143   0.417000   1.008000
18144         OT   646  TIP3   OH2 18144  -0.834000  15.999400
18145         HT   646  TIP3    H1 18145   0.417000   1.008000
18146         HT   646  TIP3    H2 18146   0.417000   1.008000
18147         OT   647  TIP3   OH2 18147  -0.834000  15.999400
18148         HT   647  TIP3    H1 18148   0.417000   1.008000
18149         HT   647  TIP3    H2 18149   0.417000   1.008000
18150         OT   648  TIP3   OH2 18150  -0.834000  15.999400
18151         HT   648  TIP3    H1 18151   0.417000   1.008000
18152         HT   648  TIP3    H2 18152   0.417000   1.008000
18153         OT   649  TIP3   OH2 18153  -0.834000  15.999400
18154         HT   649  TIP3    H1 18154   0.417000   1.008000
18155         HT   649  TIP3    H2 18155   0.417000   1.008000
18156         OT   650  TIP3   OH2 18156  -0.834000  15.999400
18157         HT   650  TIP3    H1 18157   0.417000   1.008000
18158         HT   650  TIP3    H2 18158   0.417000   1.008000
18159         OT   651  TIP3   OH2 18159  -0.834000  15.999400
18160         HT   651  TIP3    H1 18160   0.417000   1.008000
18161         HT   651  TIP3    H2 18161   0.417000   1.008000
18162         OT   652  TIP3   OH2 18162  -0.834000  15.999400
18163         HT   652  TIP3    H1 18163   0.417000   1.008000
18164         HT   652  TIP3    H2 18164   0.417000   1.008000
18165         OT   653  TIP3   OH2 18165  -0.834000  15.999400
18166         HT   653  TIP3    H1 18166   0.417000   1.008000
18167         HT   653  TIP3    H2 18167   0.417000   1.008000
18168         OT   654  TIP3   OH2 18168  -0.834000  15.999400
18169         HT   654  TIP3    H1 18169   0.417000   1.008000
18170         HT   654  TIP3    H2 18170   0.417000   1.008000
18171         OT   655  TIP3   OH2 18171  -0.834000  15.999400
18172         HT   655  TIP3    H1 18172   0.417000   1.008000
18173         HT   655  TIP3    H2 18173   0.417000   1.008000
18174         OT   656  TIP3   OH2 18174  -0.834000  15.999400
18175         HT   656  TIP3    H1 18175   0.417000   1.008000
18176         HT   656  TIP3    H2 18176   0.417000   1.008000
18177         OT   657  TIP3   OH2 18177  -0.834000  15.999400
18178         HT   657  TIP3    H1 18178   0.417000   1.008000
18179         HT   657  TIP3    H2 18179   0.417000   1.008000
18180         OT   658  TIP3   OH2 18180  -0.834000  15.999400
18181         HT   658  TIP3    H1 18181   0.417000   1.008000
18182         HT   658  TIP3    H2 18182   0.417000   1.008000
18183         OT   659  TIP3   OH2 18183  -0.834000  15.999400
18184         HT   659  TIP3    H1 18184   0.417000   1.008000
18185         HT   659  TIP3    H2 18185   0.417000   1.008000
18186         OT   660  TIP3   OH2 18186  -0.834000  15.999400
18187         HT   660  TIP3    H1 18187   0.417000   1.008000
18188         HT   660  TIP3    H2 18188   0.417000   1.008000
18189         OT   661  TIP3   OH2 18189  -0.834000  15.999400
18190         HT   661  TIP3    H1 18190   0.417000   1.008000
18191         HT   661  TIP3    H2 18191   0.417000   1.008000
18192         OT   662  TIP3   OH2 18192  -0.834000  15.999400
18193         HT   662  TIP3    H1 18193   0.417000   1.008000
18194         HT   662  TIP3    H2 18194   0.417000   1.008000
18195         OT   663  TIP3   OH2 18195  -0.834000  15.999400
18196         HT   663  TIP3    H1 18196   0.417000   1.008000
18197         HT   663  TIP3    H2 18197   0.417000   1.008000
18198         OT   664  TIP3   OH2 18198  -0.834000  15.999400
18199         HT   664  TIP3    H1 18199   0.417000   1.008000
18200         HT   664  TIP3    H2 18200   0.417000   1.008000
18201         OT   665  TIP3   OH2 18201  -0.834000  15.999400
18202         HT   665  TIP3    H1 18202   0.417000   1.008000
18203         HT   665  TIP3    H2 18203   0.417000   1.008000
18204         OT   666  TIP3   OH2 18204  -0.834000  15.999400
18205         HT   666  TIP3    H1 18205   0.417000   1.008000
18206         HT   666  TIP3    H2 18206   0.417000   1.008000
18207         OT   667  TIP3   OH2 18207  -0.834000  15.999400
18208         HT   667  TIP3    H1 18208   0.417000   1.008000
18209         HT   667  TIP3    H2 18209   0.417000   1.008000
18210         OT   668  TIP3   OH2 18210  -0.834000  15.999400
18211         HT   668  TIP3    H1 18211   0.417000   1.008000
18212         HT   668  TIP3    H2 18212   0.417000   1.008000
18213         OT   669  TIP3   OH2 18213  -0.834000  15.999400
18214         HT   669  TIP3    H1 18214   0.417000   1.008000
18215         HT   669  TIP3    H2 18215   0.417000   1.008000
18216         OT   670  TIP3   OH2 18216  -0.834000  15.999400
18217         HT   670  TIP3    H1 18217   0.417000   1.008000
18218         HT   670  TIP3    H2 18218   0.417000   1.008000
18219         OT   671  TIP3   OH2 18219  -0.834000  15.999400
18220         HT   671  TIP3    H1 18220   0.417000   1.008000
18221         HT   671  TIP3    H2 18221   0.417000   1.008000
18222         OT   672  TIP3   OH2 18222  -0.834000  15.999400
18223         HT   672  TIP3    H1 18223   0.417000   1.008000
18224         HT   672  TIP3    H2 18224   0.417000   1.008000
18225         OT   673  TIP3   OH2 18225  -0.834000  15.999400
18226         HT   673  TIP3    H1 18226   0.417000   1.008000
18227         HT   673  TIP3    H2 18227   0.417000   1.008000
18228         OT   674  TIP3   OH2 18228  -0.834000  15.999400
18229         HT   674  TIP3    H1 18229   0.417000   1.008000
18230         HT   674  TIP3    H2 18230   0.417000   1.008000
18231         OT   675  TIP3   OH2 18231  -0.834000  15.999400
18232         HT   675  TIP3    H1 18232   0.417000   1.008000
18233         HT   675  TIP3    H2 18233   0.417000   1.008000
18234         OT   676  TIP3   OH2 18234  -0.834000  15.999400
18235         HT   676  TIP3    H1 18235   0.417000   1.008000
18236         HT   676  TIP3    H2 18236   0.417000   1.008000
18237         OT   677  TIP3   OH2 18237  -0.834000  15.999400
18238         HT   677  TIP3    H1 18238   0.417000   1.008000
18239         HT   677  TIP3    H2 18239   0.417000   1.008000
18240         OT   678  TIP3   OH2 18240  -0.834000  15.999400
18241         HT   678  TIP3    H1 18241   0.417000   1.008000
18242         HT   678  TIP3    H2 18242   0.417000   1.008000
18243         OT   679  TIP3   OH2 18243  -0.834000  15.999400
18244         HT   679  TIP3    H1 18244   0.417000   1.008000
18245         HT   679  TIP3    H2 18245   0.417000   1.008000
18246         OT   680  TIP3   OH2 18246  -0.834000  15.999400
18247         HT   680  TIP3    H1 18247   0.417000   1.008000
18248         HT   680  TIP3    H2 18248   0.417000   1.008000
18249         OT   681  TIP3   OH2 18249  -0.834000  15.999400
18250         HT   681  TIP3    H1 18250   0.417000   1.008000
18251         HT   681  TIP3    H2 18251   0.417000   1.008000
18252         OT   682  TIP3   OH2 18252  -0.834000  15.999400
18253         HT   682  TIP3    H1 18253   0.417000   1.008000
18254         HT   682  TIP3    H2 18254   0.417000   1.008000
18255         OT   683  TIP3   OH2 18255  -0.834000  15.999400
18256         HT   683  TIP3    H1 18256   0.417000   1.008000
18257         HT   683  TIP3    H2 18257   0.417000   1.008000
18258         OT   684  TIP3   OH2 18258  -0.834000  15.999400
18259         HT   684  TIP3    H1 18259   0.417000   1.008000
18260         HT   684  TIP3    H2 18260   0.417000   1.008000
18261         OT   685  TIP3   OH2 18261  -0.834000  15.999400
18262         HT   685  TIP3    H1 18262   0.417000   1.008000
18263         HT   685  TIP3    H2 18263   0.417000   1.008000
18264         OT   686  TIP3   OH2 18264  -0.834000  15.999400
18265         HT   686  TIP3    H1 18265   0.417000   1.008000
18266         HT   686  TIP3    H2 18266   0.417000   1.008000
18267         OT   687  TIP3   OH2 18267  -0.834000  15.999400
18268         HT   687  TIP3    H1 18268   0.417000   1.008000
18269         HT   687  TIP3    H2 18269   0.417000   1.008000
18270         OT   688  TIP3   OH2 18270  -0.834000  15.999400
18271         HT   688  TIP3    H1 18271   0.417000   1.008000
18272         HT   688  TIP3    H2 18272   0.417000   1.008000
18273         OT   689  TIP3   OH2 18273  -0.834000  15.999400
18274         HT   689  TIP3    H1 18274   0.417000   1.008000
18275         HT   689  TIP3    H2 18275   0.417000   1.008000
18276         OT   690  TIP3   OH2 18276  -0.834000  15.999400
18277         HT   690  TIP3    H1 18277   0.417000   1.008000
18278         HT   690  TIP3    H2 18278   0.417000   1.008000
18279         OT   691  TIP3   OH2 18279  -0.834000  15.999400
18280         HT   691  TIP3    H1 18280   0.417000   1.008000
18281         HT   691  TIP3    H2 18281   0.417000   1.008000
18282         OT   692  TIP3   OH2 18282  -0.834000  15.999400
18283         HT   692  TIP3    H1 18283   0.417000   1.008000
18284         HT   692  TIP3    H2 18284   0.417000   1.008000
18285         OT   693  TIP3   OH2 18285  -0.834000  15.999400
18286         HT   693  TIP3    H1 18286   0.417000   1.008000
18287         HT   693  TIP3    H2 18287   0.417000   1.008000
18288         OT   694  TIP3   OH2 18288  -0.834000  15.999400
18289         HT   694  TIP3    H1 18289   0.417000   1.008000
18290         HT   694  TIP3    H2 18290   0.417000   1.008000
18291         OT   695  TIP3   OH2 18291  -0.834000  15.999400
18292         HT   695  TIP3    H1 18292   0.417000   1.008000
18293         HT   695  TIP3    H2 18293   0.417000   1.008000
18294         OT   696  TIP3   OH2 18294  -0.834000  15.999400
18295         HT   696  TIP3    H1 18295   0.417000   1.008000
18296         HT   696  TIP3    H2 18296   0.417000   1.008000
18297         OT   697  TIP3   OH2 18297  -0.834000  15.999400
18298         HT   697  TIP3    H1 18298   0.417000   1.008000
18299         HT   697  TIP3    H2 18299   0.417000   1.008000
18300         OT   698  TIP3   OH2 18300  -0.834000  15.999400
18301         HT   698  TIP3    H1 18301   0.417000   1.008000
18302         HT   698  TIP3    H2 18302   0.417000   1.008000
18303         OT   699  TIP3   OH2 18303  -0.834000  15.999400
18304         HT   699  TIP3    H1 18304   0.417000   1.008000
18305         HT   699  TIP3    H2 18305   0.417000   1.008000
18306         OT   700  TIP3   OH2 18306  -0.834000  15.999400
18307         HT   700  TIP3    H1 18307   0.417000   1.008000
18308         HT   700  TIP3    H2 18308   0.417000   1.008000
18309         OT   701  TIP3   OH2 18309  -0.834000  15.999400
18310         HT   701  TIP3    H1 18310   0.417000   1.008000
18311         HT   701  TIP3    H2 18311   0.417000   1.008000
18312         OT   702  TIP3   OH2 18312  -0.834000  15.999400
18313         HT   702  TIP3    H1 18313   0.417000   1.008000
18314         HT   702  TIP3    H2 18314   0.417000   1.008000
18315         OT   703  TIP3   OH2 18315  -0.834000  15.999400
18316         HT   703  TIP3    H1 18316   0.417000   1.008000
18317         HT   703  TIP3    H2 18317   0.417000   1.008000
18318         OT   704  TIP3   OH2 18318  -0.834000  15.999400
18319         HT   704  TIP3    H1 18319   0.417000   1.008000
18320         HT   704  TIP3    H2 18320   0.417000   1.008000
18321         OT   705  TIP3   OH2 18321  -0.834000  15.999400
18322         HT   705  TIP3    H1 18322   0.417000   1.008000
18323         HT   705  TIP3    H2 18323   0.417000   1.008000
18324         OT   706  TIP3   OH2 18324  -0.834000  15.999400
18325         HT   706  TIP3    H1 18325   0.417000   1.008000
18326         HT   706  TIP3    H2 18326   0.417000   1.008000
18327         OT   707  TIP3   OH2 18327  -0.834000  15.999400
18328         HT   707  TIP3    H1 18328   0.417000   1.008000
18329         HT   707  TIP3    H2 18329   0.417000   1.008000
18330         OT   708  TIP3   OH2 18330  -0.834000  15.999400
18331         HT   708  TIP3    H1 18331   0.417000   1.008000
18332         HT   708  TIP3    H2 18332   0.417000   1.008000
18333         OT   709  TIP3   OH2 18333  -0.834000  15.999400
18334         HT   709  TIP3    H1 18334   0.417000   1.008000
18335         HT   709  TIP3    H2 18335   0.417000   1.008000
18336         OT   710  TIP3   OH2 18336  -0.834000  15.999400
18337         HT   710  TIP3    H1 18337   0.417000   1.008000
18338         HT   710  TIP3    H2 18338   0.417000   1.008000
18339         OT   711  TIP3   OH2 18339  -0.834000  15.999400
18340         HT   711  TIP3    H1 18340   0.417000   1.008000
18341         HT   711  TIP3    H2 18341   0.417000   1.008000
18342         OT   712  TIP3   OH2 18342  -0.834000  15.999400
18343         HT   712  TIP3    H1 18343   0.417000   1.008000
18344         HT   712  TIP3    H2 18344   0.417000   1.008000
18345         OT   713  TIP3   OH2 18345  -0.834000  15.999400
18346         HT   713  TIP3    H1 18346   0.417000   1.008000
18347         HT   713  TIP3    H2 18347   0.417000   1.008000
18348         OT   714  TIP3   OH2 18348  -0.834000  15.999400
18349         HT   714  TIP3    H1 18349   0.417000   1.008000
18350         HT   714  TIP3    H2 18350   0.417000   1.008000
18351         OT   715  TIP3   OH2 18351  -0.834000  15.999400
18352         HT   715  TIP3    H1 18352   0.417000   1.008000
18353         HT   715  TIP3    H2 18353   0.417000   1.008000
18354         OT   716  TIP3   OH2 18354  -0.834000  15.999400
18355         HT   716  TIP3    H1 18355   0.417000   1.008000
18356         HT   716  TIP3    H2 18356   0.417000   1.008000
18357         OT   717  TIP3   OH2 18357  -0.834000  15.999400
18358         HT   717  TIP3    H1 18358   0.417000   1.008000
18359         HT   717  TIP3    H2 18359   0.417000   1.008000
18360         OT   718  TIP3   OH2 18360  -0.834000  15.999400
18361         HT   718  TIP3    H1 18361   0.417000   1.008000
18362         HT   718  TIP3    H2 18362   0.417000   1.008000
18363         OT   719  TIP3   OH2 18363  -0.834000  15.999400
18364         HT   719  TIP3    H1 18364   0.417000   1.008000
18365         HT   719  TIP3    H2 18365   0.417000   1.008000
18366         OT   720  TIP3   OH2 18366  -0.834000  15.999400
18367         HT   720  TIP3    H1 18367   0.417000   1.008000
18368         HT   720  TIP3    H2 18368   0.417000   1.008000
18369         OT   721  TIP3   OH2 18369  -0.834000  15.999400
18370         HT   721  TIP3    H1 18370   0.417000   1.008000
18371         HT   721  TIP3    H2 18371   0.417000   1.008000
18372         OT   722  TIP3   OH2 18372  -0.834000  15.999400
18373         HT   722  TIP3    H1 18373   0.417000   1.008000
18374         HT   722  TIP3    H2 18374   0.417000   1.008000
18375         OT   723  TIP3   OH2 18375  -0.834000  15.999400
18376         HT   723  TIP3    H1 18376   0.417000   1.008000
18377         HT   723  TIP3    H2 18377   0.417000   1.008000
18378         OT   724  TIP3   OH2 18378  -0.834000  15.999400
18379         HT   724  TIP3    H1 18379   0.417000   1.008000
18380         HT   724  TIP3    H2 18380   0.417000   1.008000
18381         OT   725  TIP3   OH2 18381  -0.834000  15.999400
18382         HT   725  TIP3    H1 18382   0.417000   1.008000
18383         HT   725  TIP3    H2 18383   0.417000   1.008000
18384         OT   726  TIP3   OH2 18384  -0.834000  15.999400
18385         HT   726  TIP3    H1 18385   0.417000   1.008000
18386         HT   726  TIP3    H2 18386   0.417000   1.008000
18387         OT   727  TIP3   OH2 18387  -0.834000  15.999400
18388         HT   727  TIP3    H1 18388   0.417000   1.008000
18389         HT   727  TIP3    H2 18389   0.417000   1.008000
18390         OT   728  TIP3   OH2 18390  -0.834000  15.999400
18391         HT   728  TIP3    H1 18391   0.417000   1.008000
18392         HT   728  TIP3    H2 18392   0.417000   1.008000
18393         OT   729  TIP3   OH2 18393  -0.834000  15.999400
18394         HT   729  TIP3    H1 18394   0.417000   1.008000
18395         HT   729  TIP3    H2 18395   0.417000   1.008000
18396         OT   730  TIP3   OH2 18396  -0.834000  15.999400
18397         HT   730  TIP3    H1 18397   0.417000   1.008000
18398         HT   730  TIP3    H2 18398   0.417000   1.008000
18399         OT   731  TIP3   OH2 18399  -0.834000  15.999400
18400         HT   731  TIP3    H1 18400   0.417000   1.008000
18401         HT   731  TIP3    H2 18401   0.417000   1.008000
18402         OT   732  TIP3   OH2 18402  -0.834000  15.999400
18403         HT   732  TIP3    H1 18403   0.417000   1.008000
18404         HT   732  TIP3    H2 18404   0.417000   1.008000
18405         OT   733  TIP3   OH2 18405  -0.834000  15.999400
18406         HT   733  TIP3    H1 18406   0.417000   1.008000
18407         HT   733  TIP3    H2 18407   0.417000   1.008000
18408         OT   734  TIP3   OH2 18408  -0.834000  15.999400
18409         HT   734  TIP3    H1 18409   0.417000   1.008000
18410         HT   734  TIP3    H2 18410   0.417000   1.008000
18411         OT   735  TIP3   OH2 18411  -0.834000  15.999400
18412         HT   735  TIP3    H1 18412   0.417000   1.008000
18413         HT   735  TIP3    H2 18413   0.417000   1.008000
18414         OT   736  TIP3   OH2 18414  -0.834000  15.999400
18415         HT   736  TIP3    H1 18415   0.417000   1.008000
18416         HT   736  TIP3    H2 18416   0.417000   1.008000
18417         OT   737  TIP3   OH2 18417  -0.834000  15.999400
18418         HT   737  TIP3    H1 18418   0.417000   1.008000
18419         HT   737  TIP3    H2 18419   0.417000   1.008000
18420         OT   738  TIP3   OH2 18420  -0.834000  15.999400
18421         HT   738  TIP3    H1 18421   0.417000   1.008000
18422         HT   738  TIP3    H2 18422   0.417000   1.008000
18423         OT   739  TIP3   OH2 18423  -0.834000  15.999400
18424         HT   739  TIP3    H1 18424   0.417000   1.008000
18425         HT   739  TIP3    H2 18425   0.417000   1.008000
18426         OT   740  TIP3   OH2 18426  -0.834000  15.999400
18427         HT   740  TIP3    H1 18427   0.417000   1.008000
18428         HT   740  TIP3    H2 18428   0.417000   1.008000
18429         OT   741  TIP3   OH2 18429  -0.834000  15.999400
18430         HT   741  TIP3    H1 18430   0.417000   1.008000
18431         HT   741  TIP3    H2 18431   0.417000   1.008000
18432         OT   742  TIP3   OH2 18432  -0.834000  15.999400
18433         HT   742  TIP3    H1 18433   0.417000   1.008000
18434         HT   742  TIP3    H2 18434   0.417000   1.008000
18435         OT   743  TIP3   OH2 18435  -0.834000  15.999400
18436         HT   743  TIP3    H1 18436   0.417000   1.008000
18437         HT   743  TIP3    H2 18437   0.417000   1.008000
18438         OT   744  TIP3   OH2 18438  -0.834000  15.999400
18439         HT   744  TIP3    H1 18439   0.417000   1.008000
18440         HT   744  TIP3    H2 18440   0.417000   1.008000
18441         OT   745  TIP3   OH2 18441  -0.834000  15.999400
18442         HT   745  TIP3    H1 18442   0.417000   1.008000
18443         HT   745  TIP3    H2 18443   0.417000   1.008000
18444         OT   746  TIP3   OH2 18444  -0.834000  15.999400
18445         HT   746  TIP3    H1 18445   0.417000   1.008000
18446         HT   746  TIP3    H2 18446   0.417000   1.008000
18447         OT   747  TIP3   OH2 18447  -0.834000  15.999400
18448         HT   747  TIP3    H1 18448   0.417000   1.008000
18449         HT   747  TIP3    H2 18449   0.417000   1.008000
18450         OT   748  TIP3   OH2 18450  -0.834000  15.999400
18451         HT   748  TIP3    H1 18451   0.417000   1.008000
18452         HT   748  TIP3    H2 18452   0.417000   1.008000
18453         OT   749  TIP3   OH2 18453  -0.834000  15.999400
18454         HT   749  TIP3    H1 18454   0.417000   1.008000
18455         HT   749  TIP3    H2 18455   0.417000   1.008000
18456         OT   750  TIP3   OH2 18456  -0.834000  15.999400
18457         HT   750  TIP3    H1 18457   0.417000   1.008000
18458         HT   750  TIP3    H2 18458   0.417000   1.008000
18459         OT   751  TIP3   OH2 18459  -0.834000  15.999400
18460         HT   751  TIP3    H1 18460   0.417000   1.008000
18461         HT   751  TIP3    H2 18461   0.417000   1.008000
18462         OT   752  TIP3   OH2 18462  -0.834000  15.999400
18463         HT   752  TIP3    H1 18463   0.417000   1.008000
18464         HT   752  TIP3    H2 18464   0.417000   1.008000
18465         OT   753  TIP3   OH2 18465  -0.834000  15.999400
18466         HT   753  TIP3    H1 18466   0.417000   1.008000
18467         HT   753  TIP3    H2 18467   0.417000   1.008000
18468         OT   754  TIP3   OH2 18468  -0.834000  15.999400
18469         HT   754  TIP3    H1 18469   0.417000   1.008000
18470         HT   754  TIP3    H2 18470   0.417000   1.008000
18471         OT   755  TIP3   OH2 18471  -0.834000  15.999400
18472         HT   755  TIP3    H1 18472   0.417000   1.008000
18473         HT   755  TIP3    H2 18473   0.417000   1.008000
18474         OT   756  TIP3   OH2 18474  -0.834000  15.999400
18475         HT   756  TIP3    H1 18475   0.417000   1.008000
18476         HT   756  TIP3    H2 18476   0.417000   1.008000
18477         OT   757  TIP3   OH2 18477  -0.834000  15.999400
18478         HT   757  TIP3    H1 18478   0.417000   1.008000
18479         HT   757  TIP3    H2 18479   0.417000   1.008000
18480         OT   758  TIP3   OH2 18480  -0.834000  15.999400
18481         HT   758  TIP3    H1 18481   0.417000   1.008000
18482         HT   758  TIP3    H2 18482   0.417000   1.008000
18483         OT   759  TIP3   OH2 18483  -0.834000  15.999400
18484         HT   759  TIP3    H1 18484   0.417000   1.008000
18485         HT   759  TIP3    H2 18485   0.417000   1.008000
18486         OT   760  TIP3   OH2 18486  -0.834000  15.999400
18487         HT   760  TIP3    H1 18487   0.417000   1.008000
18488         HT   760  TIP3    H2 18488   0.417000   1.008000
18489         OT   761  TIP3   OH2 18489  -0.834000  15.999400
18490         HT   761  TIP3    H1 18490   0.417000   1.008000
18491         HT   761  TIP3    H2 18491   0.417000   1.008000
18492         OT   762  TIP3   OH2 18492  -0.834000  15.999400
18493         HT   762  TIP3    H1 18493   0.417000   1.008000
18494         HT   762  TIP3    H2 18494   0.417000   1.008000
18495         OT   763  TIP3   OH2 18495  -0.834000  15.999400
18496         HT   763  TIP3    H1 18496   0.417000   1.008000
18497         HT   763  TIP3    H2 18497   0.417000   1.008000
18498         OT   764  TIP3   OH2 18498  -0.834000  15.999400
18499         HT   764  TIP3    H1 18499   0.417000   1.008000
18500         HT   764  TIP3    H2 18500   0.417000   1.008000
18501         OT   765  TIP3   OH2 18501  -0.834000  15.999400
18502         HT   765  TIP3    H1 18502   0.417000   1.008000
18503         HT   765  TIP3    H2 18503   0.417000   1.008000
18504         OT   766  TIP3   OH2 18504  -0.834000  15.999400
18505         HT   766  TIP3    H1 18505   0.417000   1.008000
18506         HT   766  TIP3    H2 18506   0.417000   1.008000
18507         OT   767  TIP3   OH2 18507  -0.834000  15.999400
18508         HT   767  TIP3    H1 18508   0.417000   1.008000
18509         HT   767  TIP3    H2 18509   0.417000   1.008000
18510         OT   768  TIP3   OH2 18510  -0.834000  15.999400
18511         HT   768  TIP3    H1 18511   0.417000   1.008000
18512         HT   768  TIP3    H2 18512   0.417000   1.008000
18513         OT   769  TIP3   OH2 18513  -0.834000  15.999400
18514         HT   769  TIP3    H1 18514   0.417000   1.008000
18515         HT   769  TIP3    H2 18515   0.417000   1.008000
18516         OT   770  TIP3   OH2 18516  -0.834000  15.999400
18517         HT   770  TIP3    H1 18517   0.417000   1.008000
18518         HT   770  TIP3    H2 18518   0.417000   1.008000
18519         OT   771  TIP3   OH2 18519  -0.834000  15.999400
18520         HT   771  TIP3    H1 18520   0.417000   1.008000
18521         HT   771  TIP3    H2 18521   0.417000   1.008000
18522         OT   772  TIP3   OH2 18522  -0.834000  15.999400
18523         HT   772  TIP3    H1 18523   0.417000   1.008000
18524         HT   772  TIP3    H2 18524   0.417000   1.008000
18525         OT   773  TIP3   OH2 18525  -0.834000  15.999400
18526         HT   773  TIP3    H1 18526   0.417000   1.008000
18527         HT   773  TIP3    H2 18527   0.417000   1.008000
18528         OT   774  TIP3   OH2 18528  -0.834000  15.999400
18529         HT   774  TIP3    H1 18529   0.417000   1.008000
18530         HT   774  TIP3    H2 18530   0.417000   1.008000
18531         OT   775  TIP3   OH2 18531  -0.834000  15.999400
18532         HT   775  TIP3    H1 18532   0.417000   1.008000
18533         HT   775  TIP3    H2 18533   0.417000   1.008000
18534         OT   776  TIP3   OH2 18534  -0.834000  15.999400
18535         HT   776  TIP3    H1 18535   0.417000   1.008000
18536         HT   776  TIP3    H2 18536   0.417000   1.008000
18537         OT   777  TIP3   OH2 18537  -0.834000  15.999400
18538         HT   777  TIP3    H1 18538   0.417000   1.008000
18539         HT   777  TIP3    H2 18539   0.417000   1.008000
18540         OT   778  TIP3   OH2 18540  -0.834000  15.999400
18541         HT   778  TIP3    H1 18541   0.417000   1.008000
18542         HT   778  TIP3    H2 18542   0.417000   1.008000
18543         OT   779  TIP3   OH2 18543  -0.834000  15.999400
18544         HT   779  TIP3    H1 18544   0.417000   1.008000
18545         HT   779  TIP3    H2 18545   0.417000   1.008000
18546         OT   780  TIP3   OH2 18546  -0.834000  15.999400
18547         HT   780  TIP3    H1 18547   0.417000   1.008000
18548         HT   780  TIP3    H2 18548   0.417000   1.008000
18549         OT   781  TIP3   OH2 18549  -0.834000  15.999400
18550         HT   781  TIP3    H1 18550   0.417000   1.008000
18551         HT   781  TIP3    H2 18551   0.417000   1.008000
18552         OT   782  TIP3   OH2 18552  -0.834000  15.999400
18553         HT   782  TIP3    H1 18553   0.417000   1.008000
18554         HT   782  TIP3    H2 18554   0.417000   1.008000
18555         OT   783  TIP3   OH2 18555  -0.834000  15.999400
18556         HT   783  TIP3    H1 18556   0.417000   1.008000
18557         HT   783  TIP3    H2 18557   0.417000   1.008000
18558         OT   784  TIP3   OH2 18558  -0.834000  15.999400
18559         HT   784  TIP3    H1 18559   0.417000   1.008000
18560         HT   784  TIP3    H2 18560   0.417000   1.008000
18561         OT   785  TIP3   OH2 18561  -0.834000  15.999400
18562         HT   785  TIP3    H1 18562   0.417000   1.008000
18563         HT   785  TIP3    H2 18563   0.417000   1.008000
18564         OT   786  TIP3   OH2 18564  -0.834000  15.999400
18565         HT   786  TIP3    H1 18565   0.417000   1.008000
18566         HT   786  TIP3    H2 18566   0.417000   1.008000
18567         OT   787  TIP3   OH2 18567  -0.834000  15.999400
18568         HT   787  TIP3    H1 18568   0.417000   1.008000
18569         HT   787  TIP3    H2 18569   0.417000   1.008000
18570         OT   788  TIP3   OH2 18570  -0.834000  15.999400
18571         HT   788  TIP3    H1 18571   0.417000   1.008000
18572         HT   788  TIP3    H2 18572   0.417000   1.008000
18573         OT   789  TIP3   OH2 18573  -0.834000  15.999400
18574         HT   789  TIP3    H1 18574   0.417000   1.008000
18575         HT   789  TIP3    H2 18575   0.417000   1.008000
18576         OT   790  TIP3   OH2 18576  -0.834000  15.999400
18577         HT   790  TIP3    H1 18577   0.417000   1.008000
18578         HT   790  TIP3    H2 18578   0.417000   1.008000
18579         OT   791  TIP3   OH2 18579  -0.834000  15.999400
18580         HT   791  TIP3    H1 18580   0.417000   1.008000
18581         HT   791  TIP3    H2 18581   0.417000   1.008000
18582         OT   792  TIP3   OH2 18582  -0.834000  15.999400
18583         HT   792  TIP3    H1 18583   0.417000   1.008000
18584         HT   792  TIP3    H2 18584   0.417000   1.008000
18585         OT   793  TIP3   OH2 18585  -0.834000  15.999400
18586         HT   793  TIP3    H1 18586   0.417000   1.008000
18587         HT   793  TIP3    H2 18587   0.417000   1.008000
18588         OT   794  TIP3   OH2 18588  -0.834000  15.999400
18589         HT   794  TIP3    H1 18589   0.417000   1.008000
18590         HT   794  TIP3    H2 18590   0.417000   1.008000
18591         OT   795  TIP3   OH2 18591  -0.834000  15.999400
18592         HT   795  TIP3    H1 18592   0.417000   1.008000
18593         HT   795  TIP3    H2 18593   0.417000   1.008000
18594         OT   796  TIP3   OH2 18594  -0.834000  15.999400
18595         HT   796  TIP3    H1 18595   0.417000   1.008000
18596         HT   796  TIP3    H2 18596   0.417000   1.008000
18597         OT   797  TIP3   OH2 18597  -0.834000  15.999400
18598         HT   797  TIP3    H1 18598   0.417000   1.008000
18599         HT   797  TIP3    H2 18599   0.417000   1.008000
18600         OT   798  TIP3   OH2 18600  -0.834000  15.999400
18601         HT   798  TIP3    H1 18601   0.417000   1.008000
18602         HT   798  TIP3    H2 18602   0.417000   1.008000
18603         OT   799  TIP3   OH2 18603  -0.834000  15.999400
18604         HT   799  TIP3    H1 18604   0.417000   1.008000
18605         HT   799  TIP3    H2 18605   0.417000   1.008000
18606         OT   800  TIP3   OH2 18606  -0.834000  15.999400
18607         HT   800  TIP3    H1 18607   0.417000   1.008000
18608         HT   800  TIP3    H2 18608   0.417000   1.008000
18609         OT   801  TIP3   OH2 18609  -0.834000  15.999400
18610         HT   801  TIP3    H1 18610   0.417000   1.008000
18611         HT   801  TIP3    H2 18611   0.417000   1.008000
18612         OT   802  TIP3   OH2 18612  -0.834000  15.999400
18613         HT   802  TIP3    H1 18613   0.417000   1.008000
18614         HT   802  TIP3    H2 18614   0.417000   1.008000
18615         OT   803  TIP3   OH2 18615  -0.834000  15.999400
18616         HT   803  TIP3    H1 18616   0.417000   1.008000
18617         HT   803  TIP3    H2 18617   0.417000   1.008000
18618         OT   804  TIP3   OH2 18618  -0.834000  15.999400
18619         HT   804  TIP3    H1 18619   0.417000   1.008000
18620         HT   804  TIP3    H2 18620   0.417000   1.008000
18621         OT   805  TIP3   OH2 18621  -0.834000  15.999400
18622         HT   805  TIP3    H1 18622   0.417000   1.008000
18623         HT   805  TIP3    H2 18623   0.417000   1.008000
18624         OT   806  TIP3   OH2 18624  -0.834000  15.999400
18625         HT   806  TIP3    H1 18625   0.417000   1.008000
18626         HT   806  TIP3    H2 18626   0.417000   1.008000
18627         OT   807  TIP3   OH2 18627  -0.834000  15.999400
18628         HT   807  TIP3    H1 18628   0.417000   1.008000
18629         HT   807  TIP3    H2 18629   0.417000   1.008000
18630         OT   808  TIP3   OH2 18630  -0.834000  15.999400
18631         HT   808  TIP3    H1 18631   0.417000   1.008000
18632         HT   808  TIP3    H2 18632   0.417000   1.008000
18633         OT   809  TIP3   OH2 18633  -0.834000  15.999400
18634         HT   809  TIP3    H1 18634   0.417000   1.008000
18635         HT   809  TIP3    H2 18635   0.417000   1.008000
18636         OT   810  TIP3   OH2 18636  -0.834000  15.999400
18637         HT   810  TIP3    H1 18637   0.417000   1.008000
18638         HT   810  TIP3    H2 18638   0.417000   1.008000
18639         OT   811  TIP3   OH2 18639  -0.834000  15.999400
18640         HT   811  TIP3    H1 18640   0.417000   1.008000
18641         HT   811  TIP3    H2 18641   0.417000   1.008000
18642         OT   812  TIP3   OH2 18642  -0.834000  15.999400
18643         HT   812  TIP3    H1 18643   0.417000   1.008000
18644         HT   812  TIP3    H2 18644   0.417000   1.008000
18645         OT   813  TIP3   OH2 18645  -0.834000  15.999400
18646         HT   813  TIP3    H1 18646   0.417000   1.008000
18647         HT   813  TIP3    H2 18647   0.417000   1.008000
18648         OT   814  TIP3   OH2 18648  -0.834000  15.999400
18649         HT   814  TIP3    H1 18649   0.417000   1.008000
18650         HT   814  TIP3    H2 18650   0.417000   1.008000
18651         OT   815  TIP3   OH2 18651  -0.834000  15.999400
18652         HT   815  TIP3    H1 18652   0.417000   1.008000
18653         HT   815  TIP3    H2 18653   0.417000   1.008000
18654         OT   816  TIP3   OH2 18654  -0.834000  15.999400
18655         HT   816  TIP3    H1 18655   0.417000   1.008000
18656         HT   816  TIP3    H2 18656   0.417000   1.008000
18657         OT   817  TIP3   OH2 18657  -0.834000  15.999400
18658         HT   817  TIP3    H1 18658   0.417000   1.008000
18659         HT   817  TIP3    H2 18659   0.417000   1.008000
18660         OT   818  TIP3   OH2 18660  -0.834000  15.999400
18661         HT   818  TIP3    H1 18661   0.417000   1.008000
18662         HT   818  TIP3    H2 18662   0.417000   1.008000
18663         OT   819  TIP3   OH2 18663  -0.834000  15.999400
18664         HT   819  TIP3    H1 18664   0.417000   1.008000
18665         HT   819  TIP3    H2 18665   0.417000   1.008000
18666         OT   820  TIP3   OH2 18666  -0.834000  15.999400
18667         HT   820  TIP3    H1 18667   0.417000   1.008000
18668         HT   820  TIP3    H2 18668   0.417000   1.008000
18669         OT   821  TIP3   OH2 18669  -0.834000  15.999400
18670         HT   821  TIP3    H1 18670   0.417000   1.008000
18671         HT   821  TIP3    H2 18671   0.417000   1.008000
18672         OT   822  TIP3   OH2 18672  -0.834000  15.999400
18673         HT   822  TIP3    H1 18673   0.417000   1.008000
18674         HT   822  TIP3    H2 18674   0.417000   1.008000
18675         OT   823  TIP3   OH2 18675  -0.834000  15.999400
18676         HT   823  TIP3    H1 18676   0.417000   1.008000
18677         HT   823  TIP3    H2 18677   0.417000   1.008000
18678         OT   824  TIP3   OH2 18678  -0.834000  15.999400
18679         HT   824  TIP3    H1 18679   0.417000   1.008000
18680         HT   824  TIP3    H2 18680   0.417000   1.008000
18681         OT   825  TIP3   OH2 18681  -0.834000  15.999400
18682         HT   825  TIP3    H1 18682   0.417000   1.008000
18683         HT   825  TIP3    H2 18683   0.417000   1.008000
18684         OT   826  TIP3   OH2 18684  -0.834000  15.999400
18685         HT   826  TIP3    H1 18685   0.417000   1.008000
18686         HT   826  TIP3    H2 18686   0.417000   1.008000
18687         OT   827  TIP3   OH2 18687  -0.834000  15.999400
18688         HT   827  TIP3    H1 18688   0.417000   1.008000
18689         HT   827  TIP3    H2 18689   0.417000   1.008000
18690         OT   828  TIP3   OH2 18690  -0.834000  15.999400
18691         HT   828  TIP3    H1 18691   0.417000   1.008000
18692         HT   828  TIP3    H2 18692   0.417000   1.008000
18693         OT   829  TIP3   OH2 18693  -0.834000  15.999400
18694         HT   829  TIP3    H1 18694   0.417000   1.008000
18695         HT   829  TIP3    H2 18695   0.417000   1.008000
18696         OT   830  TIP3   OH2 18696  -0.834000  15.999400
18697         HT   830  TIP3    H1 18697   0.417000   1.008000
18698         HT   830  TIP3    H2 18698   0.417000   1.008000
18699         OT   831  TIP3   OH2 18699  -0.834000  15.999400
18700         HT   831  TIP3    H1 18700   0.417000   1.008000
18701         HT   831  TIP3    H2 18701   0.417000   1.008000
18702         OT   832  TIP3   OH2 18702  -0.834000  15.999400
18703         HT   832  TIP3    H1 18703   0.417000   1.008000
18704         HT   832  TIP3    H2 18704   0.417000   1.008000
18705         OT   833  TIP3   OH2 18705  -0.834000  15.999400
18706         HT   833  TIP3    H1 18706   0.417000   1.008000
18707         HT   833  TIP3    H2 18707   0.417000   1.008000
18708         OT   834  TIP3   OH2 18708  -0.834000  15.999400
18709         HT   834  TIP3    H1 18709   0.417000   1.008000
18710         HT   834  TIP3    H2 18710   0.417000   1.008000
18711         OT   835  TIP3   OH2 18711  -0.834000  15.999400
18712         HT   835  TIP3    H1 18712   0.417000   1.008000
18713         HT   835  TIP3    H2 18713   0.417000   1.008000
18714         OT   836  TIP3   OH2 18714  -0.834000  15.999400
18715         HT   836  TIP3    H1 18715   0.417000   1.008000
18716         HT   836  TIP3    H2 18716   0.417000   1.008000
18717         OT   837  TIP3   OH2 18717  -0.834000  15.999400
18718         HT   837  TIP3    H1 18718   0.417000   1.008000
18719         HT   837  TIP3    H2 18719   0.417000   1.008000
18720         OT   838  TIP3   OH2 18720  -0.834000  15.999400
18721         HT   838  TIP3    H1 18721   0.417000   1.008000
18722         HT   838  TIP3    H2 18722   0.417000   1.008000
18723         OT   839  TIP3   OH2 18723  -0.834000  15.999400
18724         HT   839  TIP3    H1 18724   0.417000   1.008000
18725         HT   839  TIP3    H2 18725   0.417000   1.008000
18726         OT   840  TIP3   OH2 18726  -0.834000  15.999400
18727         HT   840  TIP3    H1 18727   0.417000   1.008000
18728         HT   840  TIP3    H2 18728   0.417000   1.008000
18729         OT   841  TIP3   OH2 18729  -0.834000  15.999400
18730         HT   841  TIP3    H1 18730   0.417000   1.008000
18731         HT   841  TIP3    H2 18731   0.417000   1.008000
18732         OT   842  TIP3   OH2 18732  -0.834000  15.999400
18733         HT   842  TIP3    H1 18733   0.417000   1.008000
18734         HT   842  TIP3    H2 18734   0.417000   1.008000
18735         OT   843  TIP3   OH2 18735  -0.834000  15.999400
18736         HT   843  TIP3    H1 18736   0.417000   1.008000
18737         HT   843  TIP3    H2 18737   0.417000   1.008000
18738         OT   844  TIP3   OH2 18738  -0.834000  15.999400
18739         HT   844  TIP3    H1 18739   0.417000   1.008000
18740         HT   844  TIP3    H2 18740   0.417000   1.008000
18741         OT   845  TIP3   OH2 18741  -0.834000  15.999400
18742         HT   845  TIP3    H1 18742   0.417000   1.008000
18743         HT   845  TIP3    H2 18743   0.417000   1.008000
18744         OT   846  TIP3   OH2 18744  -0.834000  15.999400
18745         HT   846  TIP3    H1 18745   0.417000   1.008000
18746         HT   846  TIP3    H2 18746   0.417000   1.008000
18747         OT   847  TIP3   OH2 18747  -0.834000  15.999400
18748         HT   847  TIP3    H1 18748   0.417000   1.008000
18749         HT   847  TIP3    H2 18749   0.417000   1.008000
18750         OT   848  TIP3   OH2 18750  -0.834000  15.999400
18751         HT   848  TIP3    H1 18751   0.417000   1.008000
18752         HT   848  TIP3    H2 18752   0.417000   1.008000
18753         OT   849  TIP3   OH2 18753  -0.834000  15.999400
18754         HT   849  TIP3    H1 18754   0.417000   1.008000
18755         HT   849  TIP3    H2 18755   0.417000   1.008000
18756         OT   850  TIP3   OH2 18756  -0.834000  15.999400
18757         HT   850  TIP3    H1 18757   0.417000   1.008000
18758         HT   850  TIP3    H2 18758   0.417000   1.008000
18759         OT   851  TIP3   OH2 18759  -0.834000  15.999400
18760         HT   851  TIP3    H1 18760   0.417000   1.008000
18761         HT   851  TIP3    H2 18761   0.417000   1.008000
18762         OT   852  TIP3   OH2 18762  -0.834000  15.999400
18763         HT   852  TIP3    H1 18763   0.417000   1.008000
18764         HT   852  TIP3    H2 18764   0.417000   1.008000
18765         OT   853  TIP3   OH2 18765  -0.834000  15.999400
18766         HT   853  TIP3    H1 18766   0.417000   1.008000
18767         HT   853  TIP3    H2 18767   0.417000   1.008000
18768         OT   854  TIP3   OH2 18768  -0.834000  15.999400
18769         HT   854  TIP3    H1 18769   0.417000   1.008000
18770         HT   854  TIP3    H2 18770   0.417000   1.008000
18771         OT   855  TIP3   OH2 18771  -0.834000  15.999400
18772         HT   855  TIP3    H1 18772   0.417000   1.008000
18773         HT   855  TIP3    H2 18773   0.417000   1.008000
18774         OT   856  TIP3   OH2 18774  -0.834000  15.999400
18775         HT   856  TIP3    H1 18775   0.417000   1.008000
18776         HT   856  TIP3    H2 18776   0.417000   1.008000
18777         OT   857  TIP3   OH2 18777  -0.834000  15.999400
18778         HT   857  TIP3    H1 18778   0.417000   1.008000
18779         HT   857  TIP3    H2 18779   0.417000   1.008000
18780         OT   858  TIP3   OH2 18780  -0.834000  15.999400
18781         HT   858  TIP3    H1 18781   0.417000   1.008000
18782         HT   858  TIP3    H2 18782   0.417000   1.008000
18783         OT   859  TIP3   OH2 18783  -0.834000  15.999400
18784         HT   859  TIP3    H1 18784   0.417000   1.008000
18785         HT   859  TIP3    H2 18785   0.417000   1.008000
18786         OT   860  TIP3   OH2 18786  -0.834000  15.999400
18787         HT   860  TIP3    H1 18787   0.417000   1.008000
18788         HT   860  TIP3    H2 18788   0.417000   1.008000
18789         OT   861  TIP3   OH2 18789  -0.834000  15.999400
18790         HT   861  TIP3    H1 18790   0.417000   1.008000
18791         HT   861  TIP3    H2 18791   0.417000   1.008000
18792         OT   862  TIP3   OH2 18792  -0.834000  15.999400
18793         HT   862  TIP3    H1 18793   0.417000   1.008000
18794         HT   862  TIP3    H2 18794   0.417000   1.008000
18795         OT   863  TIP3   OH2 18795  -0.834000  15.999400
18796         HT   863  TIP3    H1 18796   0.417000   1.008000
18797         HT   863  TIP3    H2 18797   0.417000   1.008000
18798         OT   864  TIP3   OH2 18798  -0.834000  15.999400
18799         HT   864  TIP3    H1 18799   0.417000   1.008000
18800         HT   864  TIP3    H2 18800   0.417000   1.008000
18801         OT   865  TIP3   OH2 18801  -0.834000  15.999400
18802         HT   865  TIP3    H1 18802   0.417000   1.008000
18803         HT   865  TIP3    H2 18803   0.417000   1.008000
18804         OT   866  TIP3   OH2 18804  -0.834000  15.999400
18805         HT   866  TIP3    H1 18805   0.417000   1.008000
18806         HT   866  TIP3    H2 18806   0.417000   1.008000
18807         OT   867  TIP3   OH2 18807  -0.834000  15.999400
18808         HT   867  TIP3    H1 18808   0.417000   1.008000
18809         HT   867  TIP3    H2 18809   0.417000   1.008000
18810         OT   868  TIP3   OH2 18810  -0.834000  15.999400
18811         HT   868  TIP3    H1 18811   0.417000   1.008000
18812         HT   868  TIP3    H2 18812   0.417000   1.008000
18813         OT   869  TIP3   OH2 18813  -0.834000  15.999400
18814         HT   869  TIP3    H1 18814   0.417000   1.008000
18815         HT   869  TIP3    H2 18815   0.417000   1.008000
18816         OT   870  TIP3   OH2 18816  -0.834000  15.999400
18817         HT   870  TIP3    H1 18817   0.417000   1.008000
18818         HT   870  TIP3    H2 18818   0.417000   1.008000
18819         OT   871  TIP3   OH2 18819  -0.834000  15.999400
18820         HT   871  TIP3    H1 18820   0.417000   1.008000
18821         HT   871  TIP3    H2 18821   0.417000   1.008000
18822         OT   872  TIP3   OH2 18822  -0.834000  15.999400
18823         HT   872  TIP3    H1 18823   0.417000   1.008000
18824         HT   872  TIP3    H2 18824   0.417000   1.008000
18825         OT   873  TIP3   OH2 18825  -0.834000  15.999400
18826         HT   873  TIP3    H1 18826   0.417000   1.008000
18827         HT   873  TIP3    H2 18827   0.417000   1.008000
18828         OT   874  TIP3   OH2 18828  -0.834000  15.999400
18829         HT   874  TIP3    H1 18829   0.417000   1.008000
18830         HT   874  TIP3    H2 18830   0.417000   1.008000
18831         OT   875  TIP3   OH2 18831  -0.834000  15.999400
18832         HT   875  TIP3    H1 18832   0.417000   1.008000
18833         HT   875  TIP3    H2 18833   0.417000   1.008000
18834         OT   876  TIP3   OH2 18834  -0.834000  15.999400
18835         HT   876  TIP3    H1 18835   0.417000   1.008000
18836         HT   876  TIP3    H2 18836   0.417000   1.008000
18837         OT   877  TIP3   OH2 18837  -0.834000  15.999400
18838         HT   877  TIP3    H1 18838   0.417000   1.008000
18839         HT   877  TIP3    H2 18839   0.417000   1.008000
18840         OT   878  TIP3   OH2 18840  -0.834000  15.999400
18841         HT   878  TIP3    H1 18841   0.417000   1.008000
18842         HT   878  TIP3    H2 18842   0.417000   1.008000
18843         OT   879  TIP3   OH2 18843  -0.834000  15.999400
18844         HT   879  TIP3    H1 18844   0.417000   1.008000
18845         HT   879  TIP3    H2 18845   0.417000   1.008000
18846         OT   880  TIP3   OH2 18846  -0.834000  15.999400
18847         HT   880  TIP3    H1 18847   0.417000   1.008000
18848         HT   880  TIP3    H2 18848   0.417000   1.008000
18849         OT   881  TIP3   OH2 18849  -0.834000  15.999400
18850         HT   881  TIP3    H1 18850   0.417000   1.008000
18851         HT   881  TIP3    H2 18851   0.417000   1.008000
18852         OT   882  TIP3   OH2 18852  -0.834000  15.999400
18853         HT   882  TIP3    H1 18853   0.417000   1.008000
18854         HT   882  TIP3    H2 18854   0.417000   1.008000
18855         OT   883  TIP3   OH2 18855  -0.834000  15.999400
18856         HT   883  TIP3    H1 18856   0.417000   1.008000
18857         HT   883  TIP3    H2 18857   0.417000   1.008000
18858         OT   884  TIP3   OH2 18858  -0.834000  15.999400
18859         HT   884  TIP3    H1 18859   0.417000   1.008000
18860         HT   884  TIP3    H2 18860   0.417000   1.008000
18861         OT   885  TIP3   OH2 18861  -0.834000  15.999400
18862         HT   885  TIP3    H1 18862   0.417000   1.008000
18863         HT   885  TIP3    H2 18863   0.417000   1.008000
18864         OT   886  TIP3   OH2 18864  -0.834000  15.999400
18865         HT   886  TIP3    H1 18865   0.417000   1.008000
18866         HT   886  TIP3    H2 18866   0.417000   1.008000
18867         OT   887  TIP3   OH2 18867  -0.834000  15.999400
18868         HT   887  TIP3    H1 18868   0.417000   1.008000
18869         HT   887  TIP3    H2 18869   0.417000   1.008000
18870         OT   888  TIP3   OH2 18870  -0.834000  15.999400
18871         HT   888  TIP3    H1 18871   0.417000   1.008000
18872         HT   888  TIP3    H2 18872   0.417000   1.008000
18873         OT   889  TIP3   OH2 18873  -0.834000  15.999400
18874         HT   889  TIP3    H1 18874   0.417000   1.008000
18875         HT   889  TIP3    H2 18875   0.417000   1.008000
18876         OT   890  TIP3   OH2 18876  -0.834000  15.999400
18877         HT   890  TIP3    H1 18877   0.417000   1.008000
18878         HT   890  TIP3    H2 18878   0.417000   1.008000
18879         OT   891  TIP3   OH2 18879  -0.834000  15.999400
18880         HT   891  TIP3    H1 18880   0.417000   1.008000
18881         HT   891  TIP3    H2 18881   0.417000   1.008000
18882         OT   892  TIP3   OH2 18882  -0.834000  15.999400
18883         HT   892  TIP3    H1 18883   0.417000   1.008000
18884         HT   892  TIP3    H2 18884   0.417000   1.008000
18885         OT   893  TIP3   OH2 18885  -0.834000  15.999400
18886         HT   893  TIP3    H1 18886   0.417000   1.008000
18887         HT   893  TIP3    H2 18887   0.417000   1.008000
18888         OT   894  TIP3   OH2 18888  -0.834000  15.999400
18889         HT   894  TIP3    H1 18889   0.417000   1.008000
18890         HT   894  TIP3    H2 18890   0.417000   1.008000
18891         OT   895  TIP3   OH2 18891  -0.834000  15.999400
18892         HT   895  TIP3    H1 18892   0.417000   1.008000
18893         HT   895  TIP3    H2 18893   0.417000   1.008000
18894         OT   896  TIP3   OH2 18894  -0.834000  15.999400
18895         HT   896  TIP3    H1 18895   0.417000   1.008000
18896         HT   896  TIP3    H2 18896   0.417000   1.008000
18897         OT   897  TIP3   OH2 18897  -0.834000  15.999400
18898         HT   897  TIP3    H1 18898   0.417000   1.008000
18899         HT   897  TIP3    H2 18899   0.417000   1.008000
18900         OT   898  TIP3   OH2 18900  -0.834000  15.999400
18901         HT   898  TIP3    H1 18901   0.417000   1.008000
18902         HT   898  TIP3    H2 18902   0.417000   1.008000
18903         OT   899  TIP3   OH2 18903  -0.834000  15.999400
18904         HT   899  TIP3    H1 18904   0.417000   1.008000
18905         HT   899  TIP3    H2 18905   0.417000   1.008000
18906         OT   900  TIP3   OH2 18906  -0.834000  15.999400
18907         HT   900  TIP3    H1 18907   0.417000   1.008000
18908         HT   900  TIP3    H2 18908   0.417000   1.008000
18909         OT   901  TIP3   OH2 18909  -0.834000  15.999400
18910         HT   901  TIP3    H1 18910   0.417000   1.008000
18911         HT   901  TIP3    H2 18911   0.417000   1.008000
18912         OT   902  TIP3   OH2 18912  -0.834000  15.999400
18913         HT   902  TIP3    H1 18913   0.417000   1.008000
18914         HT   902  TIP3    H2 18914   0.417000   1.008000
18915         OT   903  TIP3   OH2 18915  -0.834000  15.999400
18916         HT   903  TIP3    H1 18916   0.417000   1.008000
18917         HT   903  TIP3    H2 18917   0.417000   1.008000
18918         OT   904  TIP3   OH2 18918  -0.834000  15.999400
18919         HT   904  TIP3    H1 18919   0.417000   1.008000
18920         HT   904  TIP3    H2 18920   0.417000   1.008000
18921         OT   905  TIP3   OH2 18921  -0.834000  15.999400
18922         HT   905  TIP3    H1 18922   0.417000   1.008000
18923         HT   905  TIP3    H2 18923   0.417000   1.008000
18924         OT   906  TIP3   OH2 18924  -0.834000  15.999400
18925         HT   906  TIP3    H1 18925   0.417000   1.008000
18926         HT   906  TIP3    H2 18926   0.417000   1.008000
18927         OT   907  TIP3   OH2 18927  -0.834000  15.999400
18928         HT   907  TIP3    H1 18928   0.417000   1.008000
18929         HT   907  TIP3    H2 18929   0.417000   1.008000
18930         OT   908  TIP3   OH2 18930  -0.834000  15.999400
18931         HT   908  TIP3    H1 18931   0.417000   1.008000
18932         HT   908  TIP3    H2 18932   0.417000   1.008000
18933         OT   909  TIP3   OH2 18933  -0.834000  15.999400
18934         HT   909  TIP3    H1 18934   0.417000   1.008000
18935         HT   909  TIP3    H2 18935   0.417000   1.008000
18936         OT   910  TIP3   OH2 18936  -0.834000  15.999400
18937         HT   910  TIP3    H1 18937   0.417000   1.008000
18938         HT   910  TIP3    H2 18938   0.417000   1.008000
18939         OT   911  TIP3   OH2 18939  -0.834000  15.999400
18940         HT   911  TIP3    H1 18940   0.417000   1.008000
18941         HT   911  TIP3    H2 18941   0.417000   1.008000
18942         OT   912  TIP3   OH2 18942  -0.834000  15.999400
18943         HT   912  TIP3    H1 18943   0.417000   1.008000
18944         HT   912  TIP3    H2 18944   0.417000   1.008000
18945         OT   913  TIP3   OH2 18945  -0.834000  15.999400
18946         HT   913  TIP3    H1 18946   0.417000   1.008000
18947         HT   913  TIP3    H2 18947   0.417000   1.008000
18948         OT   914  TIP3   OH2 18948  -0.834000  15.999400
18949         HT   914  TIP3    H1 18949   0.417000   1.008000
18950         HT   914  TIP3    H2 18950   0.417000   1.008000
18951         OT   915  TIP3   OH2 18951  -0.834000  15.999400
18952         HT   915  TIP3    H1 18952   0.417000   1.008000
18953         HT   915  TIP3    H2 18953   0.417000   1.008000
18954         OT   916  TIP3   OH2 18954  -0.834000  15.999400
18955         HT   916  TIP3    H1 18955   0.417000   1.008000
18956         HT   916  TIP3    H2 18956   0.417000   1.008000
18957         OT   917  TIP3   OH2 18957  -0.834000  15.999400
18958         HT   917  TIP3    H1 18958   0.417000   1.008000
18959         HT   917  TIP3    H2 18959   0.417000   1.008000
18960         OT   918  TIP3   OH2 18960  -0.834000  15.999400
18961         HT   918  TIP3    H1 18961   0.417000   1.008000
18962         HT   918  TIP3    H2 18962   0.417000   1.008000
18963         OT   919  TIP3   OH2 18963  -0.834000  15.999400
18964         HT   919  TIP3    H1 18964   0.417000   1.008000
18965         HT   919  TIP3    H2 18965   0.417000   1.008000
18966         OT   920  TIP3   OH2 18966  -0.834000  15.999400
18967         HT   920  TIP3    H1 18967   0.417000   1.008000
18968         HT   920  TIP3    H2 18968   0.417000   1.008000
18969         OT   921  TIP3   OH2 18969  -0.834000  15.999400
18970         HT   921  TIP3    H1 18970   0.417000   1.008000
18971         HT   921  TIP3    H2 18971   0.417000   1.008000
18972         OT   922  TIP3   OH2 18972  -0.834000  15.999400
18973         HT   922  TIP3    H1 18973   0.417000   1.008000
18974         HT   922  TIP3    H2 18974   0.417000   1.008000
18975         OT   923  TIP3   OH2 18975  -0.834000  15.999400
18976         HT   923  TIP3    H1 18976   0.417000   1.008000
18977         HT   923  TIP3    H2 18977   0.417000   1.008000
18978         OT   924  TIP3   OH2 18978  -0.834000  15.999400
18979         HT   924  TIP3    H1 18979   0.417000   1.008000
18980         HT   924  TIP3    H2 18980   0.417000   1.008000
18981         OT   925  TIP3   OH2 18981  -0.834000  15.999400
18982         HT   925  TIP3    H1 18982   0.417000   1.008000
18983         HT   925  TIP3    H2 18983   0.417000   1.008000
18984         OT   926  TIP3   OH2 18984  -0.834000  15.999400
18985         HT   926  TIP3    H1 18985   0.417000   1.008000
18986         HT   926  TIP3    H2 18986   0.417000   1.008000
18987         OT   927  TIP3   OH2 18987  -0.834000  15.999400
18988         HT   927  TIP3    H1 18988   0.417000   1.008000
18989         HT   927  TIP3    H2 18989   0.417000   1.008000
18990         OT   928  TIP3   OH2 18990  -0.834000  15.999400
18991         HT   928  TIP3    H1 18991   0.417000   1.008000
18992         HT   928  TIP3    H2 18992   0.417000   1.008000
18993         OT   929  TIP3   OH2 18993  -0.834000  15.999400
18994         HT   929  TIP3    H1 18994   0.417000   1.008000
18995         HT   929  TIP3    H2 18995   0.417000   1.008000
18996         OT   930  TIP3   OH2 18996  -0.834000  15.999400
18997         HT   930  TIP3    H1 18997   0.417000   1.008000
18998         HT   930  TIP3    H2 18998   0.417000   1.008000
18999         OT   931  TIP3   OH2 18999  -0.834000  15.999400
19000         HT   931  TIP3    H1 19000   0.417000   1.008000
19001         HT   931  TIP3    H2 19001   0.417000   1.008000
19002         OT   932  TIP3   OH2 19002  -0.834000  15.999400
19003         HT   932  TIP3    H1 19003   0.417000   1.008000
19004         HT   932  TIP3    H2 19004   0.417000   1.008000
19005         OT   933  TIP3   OH2 19005  -0.834000  15.999400
19006         HT   933  TIP3    H1 19006   0.417000   1.008000
19007         HT   933  TIP3    H2 19007   0.417000   1.008000
19008         OT   934  TIP3   OH2 19008  -0.834000  15.999400
19009         HT   934  TIP3    H1 19009   0.417000   1.008000
19010         HT   934  TIP3    H2 19010   0.417000   1.008000
19011         OT   935  TIP3   OH2 19011  -0.834000  15.999400
19012         HT   935  TIP3    H1 19012   0.417000   1.008000
19013         HT   935  TIP3    H2 19013   0.417000   1.008000
19014         OT   936  TIP3   OH2 19014  -0.834000  15.999400
19015         HT   936  TIP3    H1 19015   0.417000   1.008000
19016         HT   936  TIP3    H2 19016   0.417000   1.008000
19017         OT   937  TIP3   OH2 19017  -0.834000  15.999400
19018         HT   937  TIP3    H1 19018   0.417000   1.008000
19019         HT   937  TIP3    H2 19019   0.417000   1.008000
19020         OT   938  TIP3   OH2 19020  -0.834000  15.999400
19021         HT   938  TIP3    H1 19021   0.417000   1.008000
19022         HT   938  TIP3    H2 19022   0.417000   1.008000
19023         OT   939  TIP3   OH2 19023  -0.834000  15.999400
19024         HT   939  TIP3    H1 19024   0.417000   1.008000
19025         HT   939  TIP3    H2 19025   0.417000   1.008000
19026         OT   940  TIP3   OH2 19026  -0.834000  15.999400
19027         HT   940  TIP3    H1 19027   0.417000   1.008000
19028         HT   940  TIP3    H2 19028   0.417000   1.008000
19029         OT   941  TIP3   OH2 19029  -0.834000  15.999400
19030         HT   941  TIP3    H1 19030   0.417000   1.008000
19031         HT   941  TIP3    H2 19031   0.417000   1.008000
19032         OT   942  TIP3   OH2 19032  -0.834000  15.999400
19033         HT   942  TIP3    H1 19033   0.417000   1.008000
19034         HT   942  TIP3    H2 19034   0.417000   1.008000
19035         OT   943  TIP3   OH2 19035  -0.834000  15.999400
19036         HT   943  TIP3    H1 19036   0.417000   1.008000
19037         HT   943  TIP3    H2 19037   0.417000   1.008000
19038         OT   944  TIP3   OH2 19038  -0.834000  15.999400
19039         HT   944  TIP3    H1 19039   0.417000   1.008000
19040         HT   944  TIP3    H2 19040   0.417000   1.008000
19041         OT   945  TIP3   OH2 19041  -0.834000  15.999400
19042         HT   945  TIP3    H1 19042   0.417000   1.008000
19043         HT   945  TIP3    H2 19043   0.417000   1.008000
19044         OT   946  TIP3   OH2 19044  -0.834000  15.999400
19045         HT   946  TIP3    H1 19045   0.417000   1.008000
19046         HT   946  TIP3    H2 19046   0.417000   1.008000
19047         OT   947  TIP3   OH2 19047  -0.834000  15.999400
19048         HT   947  TIP3    H1 19048   0.417000   1.008000
19049         HT   947  TIP3    H2 19049   0.417000   1.008000
19050         OT   948  TIP3   OH2 19050  -0.834000  15.999400
19051         HT   948  TIP3    H1 19051   0.417000   1.008000
19052         HT   948  TIP3    H2 19052   0.417000   1.008000
19053         OT   949  TIP3   OH2 19053  -0.834000  15.999400
19054         HT   949  TIP3    H1 19054   0.417000   1.008000
19055         HT   949  TIP3    H2 19055   0.417000   1.008000
19056         OT   950  TIP3   OH2 19056  -0.834000  15.999400
19057         HT   950  TIP3    H1 19057   0.417000   1.008000
19058         HT   950  TIP3    H2 19058   0.417000   1.008000
19059         OT   951  TIP3   OH2 19059  -0.834000  15.999400
19060         HT   951  TIP3    H1 19060   0.417000   1.008000
19061         HT   951  TIP3    H2 19061   0.417000   1.008000
19062         OT   952  TIP3   OH2 19062  -0.834000  15.999400
19063         HT   952  TIP3    H1 19063   0.417000   1.008000
19064         HT   952  TIP3    H2 19064   0.417000   1.008000
19065         OT   953  TIP3   OH2 19065  -0.834000  15.999400
19066         HT   953  TIP3    H1 19066   0.417000   1.008000
19067         HT   953  TIP3    H2 19067   0.417000   1.008000
19068         OT   954  TIP3   OH2 19068  -0.834000  15.999400
19069         HT   954  TIP3    H1 19069   0.417000   1.008000
19070         HT   954  TIP3    H2 19070   0.417000   1.008000
19071         OT   955  TIP3   OH2 19071  -0.834000  15.999400
19072         HT   955  TIP3    H1 19072   0.417000   1.008000
19073         HT   955  TIP3    H2 19073   0.417000   1.008000
19074         OT   956  TIP3   OH2 19074  -0.834000  15.999400
19075         HT   956  TIP3    H1 19075   0.417000   1.008000
19076         HT   956  TIP3    H2 19076   0.417000   1.008000
19077         OT   957  TIP3   OH2 19077  -0.834000  15.999400
19078         HT   957  TIP3    H1 19078   0.417000   1.008000
19079         HT   957  TIP3    H2 19079   0.417000   1.008000
19080         OT   958  TIP3   OH2 19080  -0.834000  15.999400
19081         HT   958  TIP3    H1 19081   0.417000   1.008000
19082         HT   958  TIP3    H2 19082   0.417000   1.008000
19083         OT   959  TIP3   OH2 19083  -0.834000  15.999400
19084         HT   959  TIP3    H1 19084   0.417000   1.008000
19085         HT   959  TIP3    H2 19085   0.417000   1.008000
19086         OT   960  TIP3   OH2 19086  -0.834000  15.999400
19087         HT   960  TIP3    H1 19087   0.417000   1.008000
19088         HT   960  TIP3    H2 19088   0.417000   1.008000
19089         OT   961  TIP3   OH2 19089  -0.834000  15.999400
19090         HT   961  TIP3    H1 19090   0.417000   1.008000
19091         HT   961  TIP3    H2 19091   0.417000   1.008000
19092         OT   962  TIP3   OH2 19092  -0.834000  15.999400
19093         HT   962  TIP3    H1 19093   0.417000   1.008000
19094         HT   962  TIP3    H2 19094   0.417000   1.008000
19095         OT   963  TIP3   OH2 19095  -0.834000  15.999400
19096         HT   963  TIP3    H1 19096   0.417000   1.008000
19097         HT   963  TIP3    H2 19097   0.417000   1.008000
19098         OT   964  TIP3   OH2 19098  -0.834000  15.999400
19099         HT   964  TIP3    H1 19099   0.417000   1.008000
19100         HT   964  TIP3    H2 19100   0.417000   1.008000
19101         OT   965  TIP3   OH2 19101  -0.834000  15.999400
19102         HT   965  TIP3    H1 19102   0.417000   1.008000
19103         HT   965  TIP3    H2 19103   0.417000   1.008000
19104         OT   966  TIP3   OH2 19104  -0.834000  15.999400
19105         HT   966  TIP3    H1 19105   0.417000   1.008000
19106         HT   966  TIP3    H2 19106   0.417000   1.008000
19107         OT   967  TIP3   OH2 19107  -0.834000  15.999400
19108         HT   967  TIP3    H1 19108   0.417000   1.008000
19109         HT   967  TIP3    H2 19109   0.417000   1.008000
19110         OT   968  TIP3   OH2 19110  -0.834000  15.999400
19111         HT   968  TIP3    H1 19111   0.417000   1.008000
19112         HT   968  TIP3    H2 19112   0.417000   1.008000
19113         OT   969  TIP3   OH2 19113  -0.834000  15.999400
19114         HT   969  TIP3    H1 19114   0.417000   1.008000
19115         HT   969  TIP3    H2 19115   0.417000   1.008000
19116         OT   970  TIP3   OH2 19116  -0.834000  15.999400
19117         HT   970  TIP3    H1 19117   0.417000   1.008000
19118         HT   970  TIP3    H2 19118   0.417000   1.008000
19119         OT   971  TIP3   OH2 19119  -0.834000  15.999400
19120         HT   971  TIP3    H1 19120   0.417000   1.008000
19121         HT   971  TIP3    H2 19121   0.417000   1.008000
19122         OT   972  TIP3   OH2 19122  -0.834000  15.999400
19123         HT   972  TIP3    H1 19123   0.417000   1.008000
19124         HT   972  TIP3    H2 19124   0.417000   1.008000
19125         OT   973  TIP3   OH2 19125  -0.834000  15.999400
19126         HT   973  TIP3    H1 19126   0.417000   1.008000
19127         HT   973  TIP3    H2 19127   0.417000   1.008000
19128         OT   974  TIP3   OH2 19128  -0.834000  15.999400
19129         HT   974  TIP3    H1 19129   0.417000   1.008000
19130         HT   974  TIP3    H2 19130   0.417000   1.008000
19131         OT   975  TIP3   OH2 19131  -0.834000  15.999400
19132         HT   975  TIP3    H1 19132   0.417000   1.008000
19133         HT   975  TIP3    H2 19133   0.417000   1.008000
19134         OT   976  TIP3   OH2 19134  -0.834000  15.999400
19135         HT   976  TIP3    H1 19135   0.417000   1.008000
19136         HT   976  TIP3    H2 19136   0.417000   1.008000
19137         OT   977  TIP3   OH2 19137  -0.834000  15.999400
19138         HT   977  TIP3    H1 19138   0.417000   1.008000
19139         HT   977  TIP3    H2 19139   0.417000   1.008000
19140         OT   978  TIP3   OH2 19140  -0.834000  15.999400
19141         HT   978  TIP3    H1 19141   0.417000   1.008000
19142         HT   978  TIP3    H2 19142   0.417000   1.008000
19143         OT   979  TIP3   OH2 19143  -0.834000  15.999400
19144         HT   979  TIP3    H1 19144   0.417000   1.008000
19145         HT   979  TIP3    H2 19145   0.417000   1.008000
19146         OT   980  TIP3   OH2 19146  -0.834000  15.999400
19147         HT   980  TIP3    H1 19147   0.417000   1.008000
19148         HT   980  TIP3    H2 19148   0.417000   1.008000
19149         OT   981  TIP3   OH2 19149  -0.834000  15.999400
19150         HT   981  TIP3    H1 19150   0.417000   1.008000
19151         HT   981  TIP3    H2 19151   0.417000   1.008000
19152         OT   982  TIP3   OH2 19152  -0.834000  15.999400
19153         HT   982  TIP3    H1 19153   0.417000   1.008000
19154         HT   982  TIP3    H2 19154   0.417000   1.008000
19155         OT   983  TIP3   OH2 19155  -0.834000  15.999400
19156         HT   983  TIP3    H1 19156   0.417000   1.008000
19157         HT   983  TIP3    H2 19157   0.417000   1.008000
19158         OT   984  TIP3   OH2 19158  -0.834000  15.999400
19159         HT   984  TIP3    H1 19159   0.417000   1.008000
19160         HT   984  TIP3    H2 19160   0.417000   1.008000
19161         OT   985  TIP3   OH2 19161  -0.834000  15.999400
19162         HT   985  TIP3    H1 19162   0.417000   1.008000
19163         HT   985  TIP3    H2 19163   0.417000   1.008000
19164         OT   986  TIP3   OH2 19164  -0.834000  15.999400
19165         HT   986  TIP3    H1 19165   0.417000   1.008000
19166         HT   986  TIP3    H2 19166   0.417000   1.008000
19167         OT   987  TIP3   OH2 19167  -0.834000  15.999400
19168         HT   987  TIP3    H1 19168   0.417000   1.008000
19169         HT   987  TIP3    H2 19169   0.417000   1.008000
19170         OT   988  TIP3   OH2 19170  -0.834000  15.999400
19171         HT   988  TIP3    H1 19171   0.417000   1.008000
19172         HT   988  TIP3    H2 19172   0.417000   1.008000
19173         OT   989  TIP3   OH2 19173  -0.834000  15.999400
19174         HT   989  TIP3    H1 19174   0.417000   1.008000
19175         HT   989  TIP3    H2 19175   0.417000   1.008000
19176         OT   990  TIP3   OH2 19176  -0.834000  15.999400
19177         HT   990  TIP3    H1 19177   0.417000   1.008000
19178         HT   990  TIP3    H2 19178   0.417000   1.008000
19179         OT   991  TIP3   OH2 19179  -0.834000  15.999400
19180         HT   991  TIP3    H1 19180   0.417000   1.008000
19181         HT   991  TIP3    H2 19181   0.417000   1.008000
19182         OT   992  TIP3   OH2 19182  -0.834000  15.999400
19183         HT   992  TIP3    H1 19183   0.417000   1.008000
19184         HT   992  TIP3    H2 19184   0.417000   1.008000
19185         OT   993  TIP3   OH2 19185  -0.834000  15.999400
19186         HT   993  TIP3    H1 19186   0.417000   1.008000
19187         HT   993  TIP3    H2 19187   0.417000   1.008000
19188         OT   994  TIP3   OH2 19188  -0.834000  15.999400
19189         HT   994  TIP3    H1 19189   0.417000   1.008000
19190         HT   994  TIP3    H2 19190   0.417000   1.008000
19191         OT   995  TIP3   OH2 19191  -0.834000  15.999400
19192         HT   995  TIP3    H1 19192   0.417000   1.008000
19193         HT   995  TIP3    H2 19193   0.417000   1.008000
19194         OT   996  TIP3   OH2 19194  -0.834000  15.999400
19195         HT   996  TIP3    H1 19195   0.417000   1.008000
19196         HT   996  TIP3    H2 19196   0.417000   1.008000
19197         OT   997  TIP3   OH2 19197  -0.834000  15.999400
19198         HT   997  TIP3    H1 19198   0.417000   1.008000
19199         HT   997  TIP3    H2 19199   0.417000   1.008000
19200         OT   998  TIP3   OH2 19200  -0.834000  15.999400
19201         HT   998  TIP3    H1 19201   0.417000   1.008000
19202         HT   998  TIP3    H2 19202   0.417000   1.008000
19203         OT   999  TIP3   OH2 19203  -0.834000  15.999400
19204         HT   999  TIP3    H1 19204   0.417000   1.008000
19205         HT   999  TIP3    H2 19205   0.417000   1.008000
19206         OT  1000  TIP3   OH2 19206  -0.834000  15.999400
19207         HT  1000  TIP3    H1 19207   0.417000   1.008000
19208         HT  1000  TIP3    H2 19208   0.417000   1.008000
19209         OT  1001  TIP3   OH2 19209  -0.834000  15.999400
19210         HT  1001  TIP3    H1 19210   0.417000   1.008000
19211         HT  1001  TIP3    H2 19211   0.417000   1.008000
19212         OT  1002  TIP3   OH2 19212  -0.834000  15.999400
19213         HT  1002  TIP3    H1 19213   0.417000   1.008000
19214         HT  1002  TIP3    H2 19214   0.417000   1.008000
19215         OT  1003  TIP3   OH2 19215  -0.834000  15.999400
19216         HT  1003  TIP3    H1 19216   0.417000   1.008000
19217         HT  1003  TIP3    H2 19217   0.417000   1.008000
19218         OT  1004  TIP3   OH2 19218  -0.834000  15.999400
19219         HT  1004  TIP3    H1 19219   0.417000   1.008000
19220         HT  1004  TIP3    H2 19220   0.417000   1.008000
19221         OT  1005  TIP3   OH2 19221  -0.834000  15.999400
19222         HT  1005  TIP3    H1 19222   0.417000   1.008000
19223         HT  1005  TIP3    H2 19223   0.417000   1.008000
19224         OT  1006  TIP3   OH2 19224  -0.834000  15.999400
19225         HT  1006  TIP3    H1 19225   0.417000   1.008000
19226         HT  1006  TIP3    H2 19226   0.417000   1.008000
19227         OT  1007  TIP3   OH2 19227  -0.834000  15.999400
19228         HT  1007  TIP3    H1 19228   0.417000   1.008000
19229         HT  1007  TIP3    H2 19229   0.417000   1.008000
19230         OT  1008  TIP3   OH2 19230  -0.834000  15.999400
19231         HT  1008  TIP3    H1 19231   0.417000   1.008000
19232         HT  1008  TIP3    H2 19232   0.417000   1.008000
19233         OT  1009  TIP3   OH2 19233  -0.834000  15.999400
19234         HT  1009  TIP3    H1 19234   0.417000   1.008000
19235         HT  1009  TIP3    H2 19235   0.417000   1.008000
19236         OT  1010  TIP3   OH2 19236  -0.834000  15.999400
19237         HT  1010  TIP3    H1 19237   0.417000   1.008000
19238         HT  1010  TIP3    H2 19238   0.417000   1.008000
19239         OT  1011  TIP3   OH2 19239  -0.834000  15.999400
19240         HT  1011  TIP3    H1 19240   0.417000   1.008000
19241         HT  1011  TIP3    H2 19241   0.417000   1.008000
19242         OT  1012  TIP3   OH2 19242  -0.834000  15.999400
19243         HT  1012  TIP3    H1 19243   0.417000   1.008000
19244         HT  1012  TIP3    H2 19244   0.417000   1.008000
19245         OT  1013  TIP3   OH2 19245  -0.834000  15.999400
19246         HT  1013  TIP3    H1 19246   0.417000   1.008000
19247         HT  1013  TIP3    H2 19247   0.417000   1.008000
19248         OT  1014  TIP3   OH2 19248  -0.834000  15.999400
19249         HT  1014  TIP3    H1 19249   0.417000   1.008000
19250         HT  1014  TIP3    H2 19250   0.417000   1.008000
19251         OT  1015  TIP3   OH2 19251  -0.834000  15.999400
19252         HT  1015  TIP3    H1 19252   0.417000   1.008000
19253         HT  1015  TIP3    H2 19253   0.417000   1.008000
19254         OT  1016  TIP3   OH2 19254  -0.834000  15.999400
19255         HT  1016  TIP3    H1 19255   0.417000   1.008000
19256         HT  1016  TIP3    H2 19256   0.417000   1.008000
19257         OT  1017  TIP3   OH2 19257  -0.834000  15.999400
19258         HT  1017  TIP3    H1 19258   0.417000   1.008000
19259         HT  1017  TIP3    H2 19259   0.417000   1.008000
19260         OT  1018  TIP3   OH2 19260  -0.834000  15.999400
19261         HT  1018  TIP3    H1 19261   0.417000   1.008000
19262         HT  1018  TIP3    H2 19262   0.417000   1.008000
19263         OT  1019  TIP3   OH2 19263  -0.834000  15.999400
19264         HT  1019  TIP3    H1 19264   0.417000   1.008000
19265         HT  1019  TIP3    H2 19265   0.417000   1.008000
19266         OT  1020  TIP3   OH2 19266  -0.834000  15.999400
19267         HT  1020  TIP3    H1 19267   0.417000   1.008000
19268         HT  1020  TIP3    H2 19268   0.417000   1.008000
19269         OT  1021  TIP3   OH2 19269  -0.834000  15.999400
19270         HT  1021  TIP3    H1 19270   0.417000   1.008000
19271         HT  1021  TIP3    H2 19271   0.417000   1.008000
19272         OT  1022  TIP3   OH2 19272  -0.834000  15.999400
19273         HT  1022  TIP3    H1 19273   0.417000   1.008000
19274         HT  1022  TIP3    H2 19274   0.417000   1.008000
19275         OT  1023  TIP3   OH2 19275  -0.834000  15.999400
19276         HT  1023  TIP3    H1 19276   0.417000   1.008000
19277         HT  1023  TIP3    H2 19277   0.417000   1.008000
19278         OT  1024  TIP3   OH2 19278  -0.834000  15.999400
19279         HT  1024  TIP3    H1 19279   0.417000   1.008000
19280         HT  1024  TIP3    H2 19280   0.417000   1.008000
19281         OT  1025  TIP3   OH2 19281  -0.834000  15.999400
19282         HT  1025  TIP3    H1 19282   0.417000   1.008000
19283         HT  1025  TIP3    H2 19283   0.417000   1.008000
19284         OT  1026  TIP3   OH2 19284  -0.834000  15.999400
19285         HT  1026  TIP3    H1 19285   0.417000   1.008000
19286         HT  1026  TIP3    H2 19286   0.417000   1.008000
19287         OT  1027  TIP3   OH2 19287  -0.834000  15.999400
19288         HT  1027  TIP3    H1 19288   0.417000   1.008000
19289         HT  1027  TIP3    H2 19289   0.417000   1.008000
19290         OT  1028  TIP3   OH2 19290  -0.834000  15.999400
19291         HT  1028  TIP3    H1 19291   0.417000   1.008000
19292         HT  1028  TIP3    H2 19292   0.417000   1.008000
19293         OT  1029  TIP3   OH2 19293  -0.834000  15.999400
19294         HT  1029  TIP3    H1 19294   0.417000   1.008000
19295         HT  1029  TIP3    H2 19295   0.417000   1.008000
19296         OT  1030  TIP3   OH2 19296  -0.834000  15.999400
19297         HT  1030  TIP3    H1 19297   0.417000   1.008000
19298         HT  1030  TIP3    H2 19298   0.417000   1.008000
19299         OT  1031  TIP3   OH2 19299  -0.834000  15.999400
19300         HT  1031  TIP3    H1 19300   0.417000   1.008000
19301         HT  1031  TIP3    H2 19301   0.417000   1.008000
19302         OT  1032  TIP3   OH2 19302  -0.834000  15.999400
19303         HT  1032  TIP3    H1 19303   0.417000   1.008000
19304         HT  1032  TIP3    H2 19304   0.417000   1.008000
19305         OT  1033  TIP3   OH2 19305  -0.834000  15.999400
19306         HT  1033  TIP3    H1 19306   0.417000   1.008000
19307         HT  1033  TIP3    H2 19307   0.417000   1.008000
19308         OT  1034  TIP3   OH2 19308  -0.834000  15.999400
19309         HT  1034  TIP3    H1 19309   0.417000   1.008000
19310         HT  1034  TIP3    H2 19310   0.417000   1.008000
19311         OT  1035  TIP3   OH2 19311  -0.834000  15.999400
19312         HT  1035  TIP3    H1 19312   0.417000   1.008000
19313         HT  1035  TIP3    H2 19313   0.417000   1.008000
19314         OT  1036  TIP3   OH2 19314  -0.834000  15.999400
19315         HT  1036  TIP3    H1 19315   0.417000   1.008000
19316         HT  1036  TIP3    H2 19316   0.417000   1.008000
19317         OT  1037  TIP3   OH2 19317  -0.834000  15.999400
19318         HT  1037  TIP3    H1 19318   0.417000   1.008000
19319         HT  1037  TIP3    H2 19319   0.417000   1.008000
19320         OT  1038  TIP3   OH2 19320  -0.834000  15.999400
19321         HT  1038  TIP3    H1 19321   0.417000   1.008000
19322         HT  1038  TIP3    H2 19322   0.417000   1.008000
19323         OT  1039  TIP3   OH2 19323  -0.834000  15.999400
19324         HT  1039  TIP3    H1 19324   0.417000   1.008000
19325         HT  1039  TIP3    H2 19325   0.417000   1.008000
19326         OT  1040  TIP3   OH2 19326  -0.834000  15.999400
19327         HT  1040  TIP3    H1 19327   0.417000   1.008000
19328         HT  1040  TIP3    H2 19328   0.417000   1.008000
19329         OT  1041  TIP3   OH2 19329  -0.834000  15.999400
19330         HT  1041  TIP3    H1 19330   0.417000   1.008000
19331         HT  1041  TIP3    H2 19331   0.417000   1.008000
19332         OT  1042  TIP3   OH2 19332  -0.834000  15.999400
19333         HT  1042  TIP3    H1 19333   0.417000   1.008000
19334         HT  1042  TIP3    H2 19334   0.417000   1.008000
19335         OT  1043  TIP3   OH2 19335  -0.834000  15.999400
19336         HT  1043  TIP3    H1 19336   0.417000   1.008000
19337         HT  1043  TIP3    H2 19337   0.417000   1.008000
19338         OT  1044  TIP3   OH2 19338  -0.834000  15.999400
19339         HT  1044  TIP3    H1 19339   0.417000   1.008000
19340         HT  1044  TIP3    H2 19340   0.417000   1.008000
19341         OT  1045  TIP3   OH2 19341  -0.834000  15.999400
19342         HT  1045  TIP3    H1 19342   0.417000   1.008000
19343         HT  1045  TIP3    H2 19343   0.417000   1.008000
19344         OT  1046  TIP3   OH2 19344  -0.834000  15.999400
19345         HT  1046  TIP3    H1 19345   0.417000   1.008000
19346         HT  1046  TIP3    H2 19346   0.417000   1.008000
19347         OT  1047  TIP3   OH2 19347  -0.834000  15.999400
19348         HT  1047  TIP3    H1 19348   0.417000   1.008000
19349         HT  1047  TIP3    H2 19349   0.417000   1.008000
19350         OT  1048  TIP3   OH2 19350  -0.834000  15.999400
19351         HT  1048  TIP3    H1 19351   0.417000   1.008000
19352         HT  1048  TIP3    H2 19352   0.417000   1.008000
19353         OT  1049  TIP3   OH2 19353  -0.834000  15.999400
19354         HT  1049  TIP3    H1 19354   0.417000   1.008000
19355         HT  1049  TIP3    H2 19355   0.417000   1.008000
19356         OT  1050  TIP3   OH2 19356  -0.834000  15.999400
19357         HT  1050  TIP3    H1 19357   0.417000   1.008000
19358         HT  1050  TIP3    H2 19358   0.417000   1.008000
19359         OT  1051  TIP3   OH2 19359  -0.834000  15.999400
19360         HT  1051  TIP3    H1 19360   0.417000   1.008000
19361         HT  1051  TIP3    H2 19361   0.417000   1.008000
19362         OT  1052  TIP3   OH2 19362  -0.834000  15.999400
19363         HT  1052  TIP3    H1 19363   0.417000   1.008000
19364         HT  1052  TIP3    H2 19364   0.417000   1.008000
19365         OT  1053  TIP3   OH2 19365  -0.834000  15.999400
19366         HT  1053  TIP3    H1 19366   0.417000   1.008000
19367         HT  1053  TIP3    H2 19367   0.417000   1.008000
19368         OT  1054  TIP3   OH2 19368  -0.834000  15.999400
19369         HT  1054  TIP3    H1 19369   0.417000   1.008000
19370         HT  1054  TIP3    H2 19370   0.417000   1.008000
19371         OT  1055  TIP3   OH2 19371  -0.834000  15.999400
19372         HT  1055  TIP3    H1 19372   0.417000   1.008000
19373         HT  1055  TIP3    H2 19373   0.417000   1.008000
19374         OT  1056  TIP3   OH2 19374  -0.834000  15.999400
19375         HT  1056  TIP3    H1 19375   0.417000   1.008000
19376         HT  1056  TIP3    H2 19376   0.417000   1.008000
19377         OT  1057  TIP3   OH2 19377  -0.834000  15.999400
19378         HT  1057  TIP3    H1 19378   0.417000   1.008000
19379         HT  1057  TIP3    H2 19379   0.417000   1.008000
19380         OT  1058  TIP3   OH2 19380  -0.834000  15.999400
19381         HT  1058  TIP3    H1 19381   0.417000   1.008000
19382         HT  1058  TIP3    H2 19382   0.417000   1.008000
19383         OT  1059  TIP3   OH2 19383  -0.834000  15.999400
19384         HT  1059  TIP3    H1 19384   0.417000   1.008000
19385         HT  1059  TIP3    H2 19385   0.417000   1.008000
19386         OT  1060  TIP3   OH2 19386  -0.834000  15.999400
19387         HT  1060  TIP3    H1 19387   0.417000   1.008000
19388         HT  1060  TIP3    H2 19388   0.417000   1.008000
19389         OT  1061  TIP3   OH2 19389  -0.834000  15.999400
19390         HT  1061  TIP3    H1 19390   0.417000   1.008000
19391         HT  1061  TIP3    H2 19391   0.417000   1.008000
19392         OT  1062  TIP3   OH2 19392  -0.834000  15.999400
19393         HT  1062  TIP3    H1 19393   0.417000   1.008000
19394         HT  1062  TIP3    H2 19394   0.417000   1.008000
19395         OT  1063  TIP3   OH2 19395  -0.834000  15.999400
19396         HT  1063  TIP3    H1 19396   0.417000   1.008000
19397         HT  1063  TIP3    H2 19397   0.417000   1.008000
19398         OT  1064  TIP3   OH2 19398  -0.834000  15.999400
19399         HT  1064  TIP3    H1 19399   0.417000   1.008000
19400         HT  1064  TIP3    H2 19400   0.417000   1.008000
19401         OT  1065  TIP3   OH2 19401  -0.834000  15.999400
19402         HT  1065  TIP3    H1 19402   0.417000   1.008000
19403         HT  1065  TIP3    H2 19403   0.417000   1.008000
19404         OT  1066  TIP3   OH2 19404  -0.834000  15.999400
19405         HT  1066  TIP3    H1 19405   0.417000   1.008000
19406         HT  1066  TIP3    H2 19406   0.417000   1.008000
19407         OT  1067  TIP3   OH2 19407  -0.834000  15.999400
19408         HT  1067  TIP3    H1 19408   0.417000   1.008000
19409         HT  1067  TIP3    H2 19409   0.417000   1.008000
19410         OT  1068  TIP3   OH2 19410  -0.834000  15.999400
19411         HT  1068  TIP3    H1 19411   0.417000   1.008000
19412         HT  1068  TIP3    H2 19412   0.417000   1.008000
19413         OT  1069  TIP3   OH2 19413  -0.834000  15.999400
19414         HT  1069  TIP3    H1 19414   0.417000   1.008000
19415         HT  1069  TIP3    H2 19415   0.417000   1.008000
19416         OT  1070  TIP3   OH2 19416  -0.834000  15.999400
19417         HT  1070  TIP3    H1 19417   0.417000   1.008000
19418         HT  1070  TIP3    H2 19418   0.417000   1.008000
19419         OT  1071  TIP3   OH2 19419  -0.834000  15.999400
19420         HT  1071  TIP3    H1 19420   0.417000   1.008000
19421         HT  1071  TIP3    H2 19421   0.417000   1.008000
19422         OT  1072  TIP3   OH2 19422  -0.834000  15.999400
19423         HT  1072  TIP3    H1 19423   0.417000   1.008000
19424         HT  1072  TIP3    H2 19424   0.417000   1.008000
19425         OT  1073  TIP3   OH2 19425  -0.834000  15.999400
19426         HT  1073  TIP3    H1 19426   0.417000   1.008000
19427         HT  1073  TIP3    H2 19427   0.417000   1.008000
19428         OT  1074  TIP3   OH2 19428  -0.834000  15.999400
19429         HT  1074  TIP3    H1 19429   0.417000   1.008000
19430         HT  1074  TIP3    H2 19430   0.417000   1.008000
19431         OT  1075  TIP3   OH2 19431  -0.834000  15.999400
19432         HT  1075  TIP3    H1 19432   0.417000   1.008000
19433         HT  1075  TIP3    H2 19433   0.417000   1.008000
19434         OT  1076  TIP3   OH2 19434  -0.834000  15.999400
19435         HT  1076  TIP3    H1 19435   0.417000   1.008000
19436         HT  1076  TIP3    H2 19436   0.417000   1.008000
19437         OT  1077  TIP3   OH2 19437  -0.834000  15.999400
19438         HT  1077  TIP3    H1 19438   0.417000   1.008000
19439         HT  1077  TIP3    H2 19439   0.417000   1.008000
19440         OT  1078  TIP3   OH2 19440  -0.834000  15.999400
19441         HT  1078  TIP3    H1 19441   0.417000   1.008000
19442         HT  1078  TIP3    H2 19442   0.417000   1.008000
19443         OT  1079  TIP3   OH2 19443  -0.834000  15.999400
19444         HT  1079  TIP3    H1 19444   0.417000   1.008000
19445         HT  1079  TIP3    H2 19445   0.417000   1.008000
19446         OT  1080  TIP3   OH2 19446  -0.834000  15.999400
19447         HT  1080  TIP3    H1 19447   0.417000   1.008000
19448         HT  1080  TIP3    H2 19448   0.417000   1.008000
19449         OT  1081  TIP3   OH2 19449  -0.834000  15.999400
19450         HT  1081  TIP3    H1 19450   0.417000   1.008000
19451         HT  1081  TIP3    H2 19451   0.417000   1.008000
19452         OT  1082  TIP3   OH2 19452  -0.834000  15.999400
19453         HT  1082  TIP3    H1 19453   0.417000   1.008000
19454         HT  1082  TIP3    H2 19454   0.417000   1.008000
19455         OT  1083  TIP3   OH2 19455  -0.834000  15.999400
19456         HT  1083  TIP3    H1 19456   0.417000   1.008000
19457         HT  1083  TIP3    H2 19457   0.417000   1.008000
19458         OT  1084  TIP3   OH2 19458  -0.834000  15.999400
19459         HT  1084  TIP3    H1 19459   0.417000   1.008000
19460         HT  1084  TIP3    H2 19460   0.417000   1.008000
19461         OT  1085  TIP3   OH2 19461  -0.834000  15.999400
19462         HT  1085  TIP3    H1 19462   0.417000   1.008000
19463         HT  1085  TIP3    H2 19463   0.417000   1.008000
19464         OT  1086  TIP3   OH2 19464  -0.834000  15.999400
19465         HT  1086  TIP3    H1 19465   0.417000   1.008000
19466         HT  1086  TIP3    H2 19466   0.417000   1.008000
19467         OT  1087  TIP3   OH2 19467  -0.834000  15.999400
19468         HT  1087  TIP3    H1 19468   0.417000   1.008000
19469         HT  1087  TIP3    H2 19469   0.417000   1.008000
19470         OT  1088  TIP3   OH2 19470  -0.834000  15.999400
19471         HT  1088  TIP3    H1 19471   0.417000   1.008000
19472         HT  1088  TIP3    H2 19472   0.417000   1.008000
19473         OT  1089  TIP3   OH2 19473  -0.834000  15.999400
19474         HT  1089  TIP3    H1 19474   0.417000   1.008000
19475         HT  1089  TIP3    H2 19475   0.417000   1.008000
19476         OT  1090  TIP3   OH2 19476  -0.834000  15.999400
19477         HT  1090  TIP3    H1 19477   0.417000   1.008000
19478         HT  1090  TIP3    H2 19478   0.417000   1.008000
19479         OT  1091  TIP3   OH2 19479  -0.834000  15.999400
19480         HT  1091  TIP3    H1 19480   0.417000   1.008000
19481         HT  1091  TIP3    H2 19481   0.417000   1.008000
19482         OT  1092  TIP3   OH2 19482  -0.834000  15.999400
19483         HT  1092  TIP3    H1 19483   0.417000   1.008000
19484         HT  1092  TIP3    H2 19484   0.417000   1.008000
19485         OT  1093  TIP3   OH2 19485  -0.834000  15.999400
19486         HT  1093  TIP3    H1 19486   0.417000   1.008000
19487         HT  1093  TIP3    H2 19487   0.417000   1.008000
19488         OT  1094  TIP3   OH2 19488  -0.834000  15.999400
19489         HT  1094  TIP3    H1 19489   0.417000   1.008000
19490         HT  1094  TIP3    H2 19490   0.417000   1.008000
19491         OT  1095  TIP3   OH2 19491  -0.834000  15.999400
19492         HT  1095  TIP3    H1 19492   0.417000   1.008000
19493         HT  1095  TIP3    H2 19493   0.417000   1.008000
19494         OT  1096  TIP3   OH2 19494  -0.834000  15.999400
19495         HT  1096  TIP3    H1 19495   0.417000   1.008000
19496         HT  1096  TIP3    H2 19496   0.417000   1.008000
19497         OT  1097  TIP3   OH2 19497  -0.834000  15.999400
19498         HT  1097  TIP3    H1 19498   0.417000   1.008000
19499         HT  1097  TIP3    H2 19499   0.417000   1.008000
19500         OT  1098  TIP3   OH2 19500  -0.834000  15.999400
19501         HT  1098  TIP3    H1 19501   0.417000   1.008000
19502         HT  1098  TIP3    H2 19502   0.417000   1.008000
19503         OT  1099  TIP3   OH2 19503  -0.834000  15.999400
19504         HT  1099  TIP3    H1 19504   0.417000   1.008000
19505         HT  1099  TIP3    H2 19505   0.417000   1.008000
19506         OT  1100  TIP3   OH2 19506  -0.834000  15.999400
19507         HT  1100  TIP3    H1 19507   0.417000   1.008000
19508         HT  1100  TIP3    H2 19508   0.417000   1.008000
19509         OT  1101  TIP3   OH2 19509  -0.834000  15.999400
19510         HT  1101  TIP3    H1 19510   0.417000   1.008000
19511         HT  1101  TIP3    H2 19511   0.417000   1.008000
19512         OT  1102  TIP3   OH2 19512  -0.834000  15.999400
19513         HT  1102  TIP3    H1 19513   0.417000   1.008000
19514         HT  1102  TIP3    H2 19514   0.417000   1.008000
19515         OT  1103  TIP3   OH2 19515  -0.834000  15.999400
19516         HT  1103  TIP3    H1 19516   0.417000   1.008000
19517         HT  1103  TIP3    H2 19517   0.417000   1.008000
19518         OT  1104  TIP3   OH2 19518  -0.834000  15.999400
19519         HT  1104  TIP3    H1 19519   0.417000   1.008000
19520         HT  1104  TIP3    H2 19520   0.417000   1.008000
19521         OT  1105  TIP3   OH2 19521  -0.834000  15.999400
19522         HT  1105  TIP3    H1 19522   0.417000   1.008000
19523         HT  1105  TIP3    H2 19523   0.417000   1.008000
19524         OT  1106  TIP3   OH2 19524  -0.834000  15.999400
19525         HT  1106  TIP3    H1 19525   0.417000   1.008000
19526         HT  1106  TIP3    H2 19526   0.417000   1.008000
19527         OT  1107  TIP3   OH2 19527  -0.834000  15.999400
19528         HT  1107  TIP3    H1 19528   0.417000   1.008000
19529         HT  1107  TIP3    H2 19529   0.417000   1.008000
19530         OT  1108  TIP3   OH2 19530  -0.834000  15.999400
19531         HT  1108  TIP3    H1 19531   0.417000   1.008000
19532         HT  1108  TIP3    H2 19532   0.417000   1.008000
19533         OT  1109  TIP3   OH2 19533  -0.834000  15.999400
19534         HT  1109  TIP3    H1 19534   0.417000   1.008000
19535         HT  1109  TIP3    H2 19535   0.417000   1.008000
19536         OT  1110  TIP3   OH2 19536  -0.834000  15.999400
19537         HT  1110  TIP3    H1 19537   0.417000   1.008000
19538         HT  1110  TIP3    H2 19538   0.417000   1.008000
19539         OT  1111  TIP3   OH2 19539  -0.834000  15.999400
19540         HT  1111  TIP3    H1 19540   0.417000   1.008000
19541         HT  1111  TIP3    H2 19541   0.417000   1.008000
19542         OT  1112  TIP3   OH2 19542  -0.834000  15.999400
19543         HT  1112  TIP3    H1 19543   0.417000   1.008000
19544         HT  1112  TIP3    H2 19544   0.417000   1.008000
19545         OT  1113  TIP3   OH2 19545  -0.834000  15.999400
19546         HT  1113  TIP3    H1 19546   0.417000   1.008000
19547         HT  1113  TIP3    H2 19547   0.417000   1.008000
19548         OT  1114  TIP3   OH2 19548  -0.834000  15.999400
19549         HT  1114  TIP3    H1 19549   0.417000   1.008000
19550         HT  1114  TIP3    H2 19550   0.417000   1.008000
19551         OT  1115  TIP3   OH2 19551  -0.834000  15.999400
19552         HT  1115  TIP3    H1 19552   0.417000   1.008000
19553         HT  1115  TIP3    H2 19553   0.417000   1.008000
19554         OT  1116  TIP3   OH2 19554  -0.834000  15.999400
19555         HT  1116  TIP3    H1 19555   0.417000   1.008000
19556         HT  1116  TIP3    H2 19556   0.417000   1.008000
19557         OT  1117  TIP3   OH2 19557  -0.834000  15.999400
19558         HT  1117  TIP3    H1 19558   0.417000   1.008000
19559         HT  1117  TIP3    H2 19559   0.417000   1.008000
19560         OT  1118  TIP3   OH2 19560  -0.834000  15.999400
19561         HT  1118  TIP3    H1 19561   0.417000   1.008000
19562         HT  1118  TIP3    H2 19562   0.417000   1.008000
19563         OT  1119  TIP3   OH2 19563  -0.834000  15.999400
19564         HT  1119  TIP3    H1 19564   0.417000   1.008000
19565         HT  1119  TIP3    H2 19565   0.417000   1.008000
19566         OT  1120  TIP3   OH2 19566  -0.834000  15.999400
19567         HT  1120  TIP3    H1 19567   0.417000   1.008000
19568         HT  1120  TIP3    H2 19568   0.417000   1.008000
19569         OT  1121  TIP3   OH2 19569  -0.834000  15.999400
19570         HT  1121  TIP3    H1 19570   0.417000   1.008000
19571         HT  1121  TIP3    H2 19571   0.417000   1.008000
19572         OT  1122  TIP3   OH2 19572  -0.834000  15.999400
19573         HT  1122  TIP3    H1 19573   0.417000   1.008000
19574         HT  1122  TIP3    H2 19574   0.417000   1.008000
19575         OT  1123  TIP3   OH2 19575  -0.834000  15.999400
19576         HT  1123  TIP3    H1 19576   0.417000   1.008000
19577         HT  1123  TIP3    H2 19577   0.417000   1.008000
19578         OT  1124  TIP3   OH2 19578  -0.834000  15.999400
19579         HT  1124  TIP3    H1 19579   0.417000   1.008000
19580         HT  1124  TIP3    H2 19580   0.417000   1.008000
19581         OT  1125  TIP3   OH2 19581  -0.834000  15.999400
19582         HT  1125  TIP3    H1 19582   0.417000   1.008000
19583         HT  1125  TIP3    H2 19583   0.417000   1.008000
19584         OT  1126  TIP3   OH2 19584  -0.834000  15.999400
19585         HT  1126  TIP3    H1 19585   0.417000   1.008000
19586         HT  1126  TIP3    H2 19586   0.417000   1.008000
19587         OT  1127  TIP3   OH2 19587  -0.834000  15.999400
19588         HT  1127  TIP3    H1 19588   0.417000   1.008000
19589         HT  1127  TIP3    H2 19589   0.417000   1.008000
19590         OT  1128  TIP3   OH2 19590  -0.834000  15.999400
19591         HT  1128  TIP3    H1 19591   0.417000   1.008000
19592         HT  1128  TIP3    H2 19592   0.417000   1.008000
19593         OT  1129  TIP3   OH2 19593  -0.834000  15.999400
19594         HT  1129  TIP3    H1 19594   0.417000   1.008000
19595         HT  1129  TIP3    H2 19595   0.417000   1.008000
19596         OT  1130  TIP3   OH2 19596  -0.834000  15.999400
19597         HT  1130  TIP3    H1 19597   0.417000   1.008000
19598         HT  1130  TIP3    H2 19598   0.417000   1.008000
19599         OT  1131  TIP3   OH2 19599  -0.834000  15.999400
19600         HT  1131  TIP3    H1 19600   0.417000   1.008000
19601         HT  1131  TIP3    H2 19601   0.417000   1.008000
19602         OT  1132  TIP3   OH2 19602  -0.834000  15.999400
19603         HT  1132  TIP3    H1 19603   0.417000   1.008000
19604         HT  1132  TIP3    H2 19604   0.417000   1.008000
19605         OT  1133  TIP3   OH2 19605  -0.834000  15.999400
19606         HT  1133  TIP3    H1 19606   0.417000   1.008000
19607         HT  1133  TIP3    H2 19607   0.417000   1.008000
19608         OT  1134  TIP3   OH2 19608  -0.834000  15.999400
19609         HT  1134  TIP3    H1 19609   0.417000   1.008000
19610         HT  1134  TIP3    H2 19610   0.417000   1.008000
19611         OT  1135  TIP3   OH2 19611  -0.834000  15.999400
19612         HT  1135  TIP3    H1 19612   0.417000   1.008000
19613         HT  1135  TIP3    H2 19613   0.417000   1.008000
19614         OT  1136  TIP3   OH2 19614  -0.834000  15.999400
19615         HT  1136  TIP3    H1 19615   0.417000   1.008000
19616         HT  1136  TIP3    H2 19616   0.417000   1.008000
19617         OT  1137  TIP3   OH2 19617  -0.834000  15.999400
19618         HT  1137  TIP3    H1 19618   0.417000   1.008000
19619         HT  1137  TIP3    H2 19619   0.417000   1.008000
19620         OT  1138  TIP3   OH2 19620  -0.834000  15.999400
19621         HT  1138  TIP3    H1 19621   0.417000   1.008000
19622         HT  1138  TIP3    H2 19622   0.417000   1.008000
19623         OT  1139  TIP3   OH2 19623  -0.834000  15.999400
19624         HT  1139  TIP3    H1 19624   0.417000   1.008000
19625         HT  1139  TIP3    H2 19625   0.417000   1.008000
19626         OT  1140  TIP3   OH2 19626  -0.834000  15.999400
19627         HT  1140  TIP3    H1 19627   0.417000   1.008000
19628         HT  1140  TIP3    H2 19628   0.417000   1.008000
19629         OT  1141  TIP3   OH2 19629  -0.834000  15.999400
19630         HT  1141  TIP3    H1 19630   0.417000   1.008000
19631         HT  1141  TIP3    H2 19631   0.417000   1.008000
19632         OT  1142  TIP3   OH2 19632  -0.834000  15.999400
19633         HT  1142  TIP3    H1 19633   0.417000   1.008000
19634         HT  1142  TIP3    H2 19634   0.417000   1.008000
19635         OT  1143  TIP3   OH2 19635  -0.834000  15.999400
19636         HT  1143  TIP3    H1 19636   0.417000   1.008000
19637         HT  1143  TIP3    H2 19637   0.417000   1.008000
19638         OT  1144  TIP3   OH2 19638  -0.834000  15.999400
19639         HT  1144  TIP3    H1 19639   0.417000   1.008000
19640         HT  1144  TIP3    H2 19640   0.417000   1.008000
19641         OT  1145  TIP3   OH2 19641  -0.834000  15.999400
19642         HT  1145  TIP3    H1 19642   0.417000   1.008000
19643         HT  1145  TIP3    H2 19643   0.417000   1.008000
19644         OT  1146  TIP3   OH2 19644  -0.834000  15.999400
19645         HT  1146  TIP3    H1 19645   0.417000   1.008000
19646         HT  1146  TIP3    H2 19646   0.417000   1.008000
19647         OT  1147  TIP3   OH2 19647  -0.834000  15.999400
19648         HT  1147  TIP3    H1 19648   0.417000   1.008000
19649         HT  1147  TIP3    H2 19649   0.417000   1.008000
19650         OT  1148  TIP3   OH2 19650  -0.834000  15.999400
19651         HT  1148  TIP3    H1 19651   0.417000   1.008000
19652         HT  1148  TIP3    H2 19652   0.417000   1.008000
19653         OT  1149  TIP3   OH2 19653  -0.834000  15.999400
19654         HT  1149  TIP3    H1 19654   0.417000   1.008000
19655         HT  1149  TIP3    H2 19655   0.417000   1.008000
19656         OT  1150  TIP3   OH2 19656  -0.834000  15.999400
19657         HT  1150  TIP3    H1 19657   0.417000   1.008000
19658         HT  1150  TIP3    H2 19658   0.417000   1.008000
19659         OT  1151  TIP3   OH2 19659  -0.834000  15.999400
19660         HT  1151  TIP3    H1 19660   0.417000   1.008000
19661         HT  1151  TIP3    H2 19661   0.417000   1.008000
19662         OT  1152  TIP3   OH2 19662  -0.834000  15.999400
19663         HT  1152  TIP3    H1 19663   0.417000   1.008000
19664         HT  1152  TIP3    H2 19664   0.417000   1.008000
19665         OT  1153  TIP3   OH2 19665  -0.834000  15.999400
19666         HT  1153  TIP3    H1 19666   0.417000   1.008000
19667         HT  1153  TIP3    H2 19667   0.417000   1.008000
19668         OT  1154  TIP3   OH2 19668  -0.834000  15.999400
19669         HT  1154  TIP3    H1 19669   0.417000   1.008000
19670         HT  1154  TIP3    H2 19670   0.417000   1.008000
19671         OT  1155  TIP3   OH2 19671  -0.834000  15.999400
19672         HT  1155  TIP3    H1 19672   0.417000   1.008000
19673         HT  1155  TIP3    H2 19673   0.417000   1.008000
19674         OT  1156  TIP3   OH2 19674  -0.834000  15.999400
19675         HT  1156  TIP3    H1 19675   0.417000   1.008000
19676         HT  1156  TIP3    H2 19676   0.417000   1.008000
19677         OT  1157  TIP3   OH2 19677  -0.834000  15.999400
19678         HT  1157  TIP3    H1 19678   0.417000   1.008000
19679         HT  1157  TIP3    H2 19679   0.417000   1.008000
19680         OT  1158  TIP3   OH2 19680  -0.834000  15.999400
19681         HT  1158  TIP3    H1 19681   0.417000   1.008000
19682         HT  1158  TIP3    H2 19682   0.417000   1.008000
19683         OT  1159  TIP3   OH2 19683  -0.834000  15.999400
19684         HT  1159  TIP3    H1 19684   0.417000   1.008000
19685         HT  1159  TIP3    H2 19685   0.417000   1.008000
19686         OT  1160  TIP3   OH2 19686  -0.834000  15.999400
19687         HT  1160  TIP3    H1 19687   0.417000   1.008000
19688         HT  1160  TIP3    H2 19688   0.417000   1.008000
19689         OT  1161  TIP3   OH2 19689  -0.834000  15.999400
19690         HT  1161  TIP3    H1 19690   0.417000   1.008000
19691         HT  1161  TIP3    H2 19691   0.417000   1.008000
19692         OT  1162  TIP3   OH2 19692  -0.834000  15.999400
19693         HT  1162  TIP3    H1 19693   0.417000   1.008000
19694         HT  1162  TIP3    H2 19694   0.417000   1.008000
19695         OT  1163  TIP3   OH2 19695  -0.834000  15.999400
19696         HT  1163  TIP3    H1 19696   0.417000   1.008000
19697         HT  1163  TIP3    H2 19697   0.417000   1.008000
19698         OT  1164  TIP3   OH2 19698  -0.834000  15.999400
19699         HT  1164  TIP3    H1 19699   0.417000   1.008000
19700         HT  1164  TIP3    H2 19700   0.417000   1.008000
19701         OT  1165  TIP3   OH2 19701  -0.834000  15.999400
19702         HT  1165  TIP3    H1 19702   0.417000   1.008000
19703         HT  1165  TIP3    H2 19703   0.417000   1.008000
19704         OT  1166  TIP3   OH2 19704  -0.834000  15.999400
19705         HT  1166  TIP3    H1 19705   0.417000   1.008000
19706         HT  1166  TIP3    H2 19706   0.417000   1.008000
19707         OT  1167  TIP3   OH2 19707  -0.834000  15.999400
19708         HT  1167  TIP3    H1 19708   0.417000   1.008000
19709         HT  1167  TIP3    H2 19709   0.417000   1.008000
19710         OT  1168  TIP3   OH2 19710  -0.834000  15.999400
19711         HT  1168  TIP3    H1 19711   0.417000   1.008000
19712         HT  1168  TIP3    H2 19712   0.417000   1.008000
19713         OT  1169  TIP3   OH2 19713  -0.834000  15.999400
19714         HT  1169  TIP3    H1 19714   0.417000   1.008000
19715         HT  1169  TIP3    H2 19715   0.417000   1.008000
19716         OT  1170  TIP3   OH2 19716  -0.834000  15.999400
19717         HT  1170  TIP3    H1 19717   0.417000   1.008000
19718         HT  1170  TIP3    H2 19718   0.417000   1.008000
19719         OT  1171  TIP3   OH2 19719  -0.834000  15.999400
19720         HT  1171  TIP3    H1 19720   0.417000   1.008000
19721         HT  1171  TIP3    H2 19721   0.417000   1.008000
19722         OT  1172  TIP3   OH2 19722  -0.834000  15.999400
19723         HT  1172  TIP3    H1 19723   0.417000   1.008000
19724         HT  1172  TIP3    H2 19724   0.417000   1.008000
19725         OT  1173  TIP3   OH2 19725  -0.834000  15.999400
19726         HT  1173  TIP3    H1 19726   0.417000   1.008000
19727         HT  1173  TIP3    H2 19727   0.417000   1.008000
19728         OT  1174  TIP3   OH2 19728  -0.834000  15.999400
19729         HT  1174  TIP3    H1 19729   0.417000   1.008000
19730         HT  1174  TIP3    H2 19730   0.417000   1.008000
19731         OT  1175  TIP3   OH2 19731  -0.834000  15.999400
19732         HT  1175  TIP3    H1 19732   0.417000   1.008000
19733         HT  1175  TIP3    H2 19733   0.417000   1.008000
19734         OT  1176  TIP3   OH2 19734  -0.834000  15.999400
19735         HT  1176  TIP3    H1 19735   0.417000   1.008000
19736         HT  1176  TIP3    H2 19736   0.417000   1.008000
19737         OT  1177  TIP3   OH2 19737  -0.834000  15.999400
19738         HT  1177  TIP3    H1 19738   0.417000   1.008000
19739         HT  1177  TIP3    H2 19739   0.417000   1.008000
19740         OT  1178  TIP3   OH2 19740  -0.834000  15.999400
19741         HT  1178  TIP3    H1 19741   0.417000   1.008000
19742         HT  1178  TIP3    H2 19742   0.417000   1.008000
19743         OT  1179  TIP3   OH2 19743  -0.834000  15.999400
19744         HT  1179  TIP3    H1 19744   0.417000   1.008000
19745         HT  1179  TIP3    H2 19745   0.417000   1.008000
19746         OT  1180  TIP3   OH2 19746  -0.834000  15.999400
19747         HT  1180  TIP3    H1 19747   0.417000   1.008000
19748         HT  1180  TIP3    H2 19748   0.417000   1.008000
19749         OT  1181  TIP3   OH2 19749  -0.834000  15.999400
19750         HT  1181  TIP3    H1 19750   0.417000   1.008000
19751         HT  1181  TIP3    H2 19751   0.417000   1.008000
19752         OT  1182  TIP3   OH2 19752  -0.834000  15.999400
19753         HT  1182  TIP3    H1 19753   0.417000   1.008000
19754         HT  1182  TIP3    H2 19754   0.417000   1.008000
19755         OT  1183  TIP3   OH2 19755  -0.834000  15.999400
19756         HT  1183  TIP3    H1 19756   0.417000   1.008000
19757         HT  1183  TIP3    H2 19757   0.417000   1.008000
19758         OT  1184  TIP3   OH2 19758  -0.834000  15.999400
19759         HT  1184  TIP3    H1 19759   0.417000   1.008000
19760         HT  1184  TIP3    H2 19760   0.417000   1.008000
19761         OT  1185  TIP3   OH2 19761  -0.834000  15.999400
19762         HT  1185  TIP3    H1 19762   0.417000   1.008000
19763         HT  1185  TIP3    H2 19763   0.417000   1.008000
19764         OT  1186  TIP3   OH2 19764  -0.834000  15.999400
19765         HT  1186  TIP3    H1 19765   0.417000   1.008000
19766         HT  1186  TIP3    H2 19766   0.417000   1.008000
19767         OT  1187  TIP3   OH2 19767  -0.834000  15.999400
19768         HT  1187  TIP3    H1 19768   0.417000   1.008000
19769         HT  1187  TIP3    H2 19769   0.417000   1.008000
19770         OT  1188  TIP3   OH2 19770  -0.834000  15.999400
19771         HT  1188  TIP3    H1 19771   0.417000   1.008000
19772         HT  1188  TIP3    H2 19772   0.417000   1.008000
19773         OT  1189  TIP3   OH2 19773  -0.834000  15.999400
19774         HT  1189  TIP3    H1 19774   0.417000   1.008000
19775         HT  1189  TIP3    H2 19775   0.417000   1.008000
19776         OT  1190  TIP3   OH2 19776  -0.834000  15.999400
19777         HT  1190  TIP3    H1 19777   0.417000   1.008000
19778         HT  1190  TIP3    H2 19778   0.417000   1.008000
19779         OT  1191  TIP3   OH2 19779  -0.834000  15.999400
19780         HT  1191  TIP3    H1 19780   0.417000   1.008000
19781         HT  1191  TIP3    H2 19781   0.417000   1.008000
19782         OT  1192  TIP3   OH2 19782  -0.834000  15.999400
19783         HT  1192  TIP3    H1 19783   0.417000   1.008000
19784         HT  1192  TIP3    H2 19784   0.417000   1.008000
19785         OT  1193  TIP3   OH2 19785  -0.834000  15.999400
19786         HT  1193  TIP3    H1 19786   0.417000   1.008000
19787         HT  1193  TIP3    H2 19787   0.417000   1.008000
19788         OT  1194  TIP3   OH2 19788  -0.834000  15.999400
19789         HT  1194  TIP3    H1 19789   0.417000   1.008000
19790         HT  1194  TIP3    H2 19790   0.417000   1.008000
19791         OT  1195  TIP3   OH2 19791  -0.834000  15.999400
19792         HT  1195  TIP3    H1 19792   0.417000   1.008000
19793         HT  1195  TIP3    H2 19793   0.417000   1.008000
19794         OT  1196  TIP3   OH2 19794  -0.834000  15.999400
19795         HT  1196  TIP3    H1 19795   0.417000   1.008000
19796         HT  1196  TIP3    H2 19796   0.417000   1.008000
19797         OT  1197  TIP3   OH2 19797  -0.834000  15.999400
19798         HT  1197  TIP3    H1 19798   0.417000   1.008000
19799         HT  1197  TIP3    H2 19799   0.417000   1.008000
19800         OT  1198  TIP3   OH2 19800  -0.834000  15.999400
19801         HT  1198  TIP3    H1 19801   0.417000   1.008000
19802         HT  1198  TIP3    H2 19802   0.417000   1.008000
19803         OT  1199  TIP3   OH2 19803  -0.834000  15.999400
19804         HT  1199  TIP3    H1 19804   0.417000   1.008000
19805         HT  1199  TIP3    H2 19805   0.417000   1.008000
19806         OT  1200  TIP3   OH2 19806  -0.834000  15.999400
19807         HT  1200  TIP3    H1 19807   0.417000   1.008000
19808         HT  1200  TIP3    H2 19808   0.417000   1.008000
19809         OT  1201  TIP3   OH2 19809  -0.834000  15.999400
19810         HT  1201  TIP3    H1 19810   0.417000   1.008000
19811         HT  1201  TIP3    H2 19811   0.417000   1.008000
19812         OT  1202  TIP3   OH2 19812  -0.834000  15.999400
19813         HT  1202  TIP3    H1 19813   0.417000   1.008000
19814         HT  1202  TIP3    H2 19814   0.417000   1.008000
19815         OT  1203  TIP3   OH2 19815  -0.834000  15.999400
19816         HT  1203  TIP3    H1 19816   0.417000   1.008000
19817         HT  1203  TIP3    H2 19817   0.417000   1.008000
19818         OT  1204  TIP3   OH2 19818  -0.834000  15.999400
19819         HT  1204  TIP3    H1 19819   0.417000   1.008000
19820         HT  1204  TIP3    H2 19820   0.417000   1.008000
19821         OT  1205  TIP3   OH2 19821  -0.834000  15.999400
19822         HT  1205  TIP3    H1 19822   0.417000   1.008000
19823         HT  1205  TIP3    H2 19823   0.417000   1.008000
19824         OT  1206  TIP3   OH2 19824  -0.834000  15.999400
19825         HT  1206  TIP3    H1 19825   0.417000   1.008000
19826         HT  1206  TIP3    H2 19826   0.417000   1.008000
19827         OT  1207  TIP3   OH2 19827  -0.834000  15.999400
19828         HT  1207  TIP3    H1 19828   0.417000   1.008000
19829         HT  1207  TIP3    H2 19829   0.417000   1.008000
19830         OT  1208  TIP3   OH2 19830  -0.834000  15.999400
19831         HT  1208  TIP3    H1 19831   0.417000   1.008000
19832         HT  1208  TIP3    H2 19832   0.417000   1.008000
19833         OT  1209  TIP3   OH2 19833  -0.834000  15.999400
19834         HT  1209  TIP3    H1 19834   0.417000   1.008000
19835         HT  1209  TIP3    H2 19835   0.417000   1.008000
19836         OT  1210  TIP3   OH2 19836  -0.834000  15.999400
19837         HT  1210  TIP3    H1 19837   0.417000   1.008000
19838         HT  1210  TIP3    H2 19838   0.417000   1.008000
19839         OT  1211  TIP3   OH2 19839  -0.834000  15.999400
19840         HT  1211  TIP3    H1 19840   0.417000   1.008000
19841         HT  1211  TIP3    H2 19841   0.417000   1.008000
19842         OT  1212  TIP3   OH2 19842  -0.834000  15.999400
19843         HT  1212  TIP3    H1 19843   0.417000   1.008000
19844         HT  1212  TIP3    H2 19844   0.417000   1.008000
19845         OT  1213  TIP3   OH2 19845  -0.834000  15.999400
19846         HT  1213  TIP3    H1 19846   0.417000   1.008000
19847         HT  1213  TIP3    H2 19847   0.417000   1.008000
19848         OT  1214  TIP3   OH2 19848  -0.834000  15.999400
19849         HT  1214  TIP3    H1 19849   0.417000   1.008000
19850         HT  1214  TIP3    H2 19850   0.417000   1.008000
19851         OT  1215  TIP3   OH2 19851  -0.834000  15.999400
19852         HT  1215  TIP3    H1 19852   0.417000   1.008000
19853         HT  1215  TIP3    H2 19853   0.417000   1.008000
19854         OT  1216  TIP3   OH2 19854  -0.834000  15.999400
19855         HT  1216  TIP3    H1 19855   0.417000   1.008000
19856         HT  1216  TIP3    H2 19856   0.417000   1.008000
19857         OT  1217  TIP3   OH2 19857  -0.834000  15.999400
19858         HT  1217  TIP3    H1 19858   0.417000   1.008000
19859         HT  1217  TIP3    H2 19859   0.417000   1.008000
19860         OT  1218  TIP3   OH2 19860  -0.834000  15.999400
19861         HT  1218  TIP3    H1 19861   0.417000   1.008000
19862         HT  1218  TIP3    H2 19862   0.417000   1.008000
19863         OT  1219  TIP3   OH2 19863  -0.834000  15.999400
19864         HT  1219  TIP3    H1 19864   0.417000   1.008000
19865         HT  1219  TIP3    H2 19865   0.417000   1.008000
19866         OT  1220  TIP3   OH2 19866  -0.834000  15.999400
19867         HT  1220  TIP3    H1 19867   0.417000   1.008000
19868         HT  1220  TIP3    H2 19868   0.417000   1.008000
19869         OT  1221  TIP3   OH2 19869  -0.834000  15.999400
19870         HT  1221  TIP3    H1 19870   0.417000   1.008000
19871         HT  1221  TIP3    H2 19871   0.417000   1.008000
19872         OT  1222  TIP3   OH2 19872  -0.834000  15.999400
19873         HT  1222  TIP3    H1 19873   0.417000   1.008000
19874         HT  1222  TIP3    H2 19874   0.417000   1.008000
19875         OT  1223  TIP3   OH2 19875  -0.834000  15.999400
19876         HT  1223  TIP3    H1 19876   0.417000   1.008000
19877         HT  1223  TIP3    H2 19877   0.417000   1.008000
19878         OT  1224  TIP3   OH2 19878  -0.834000  15.999400
19879         HT  1224  TIP3    H1 19879   0.417000   1.008000
19880         HT  1224  TIP3    H2 19880   0.417000   1.008000
19881         OT  1225  TIP3   OH2 19881  -0.834000  15.999400
19882         HT  1225  TIP3    H1 19882   0.417000   1.008000
19883         HT  1225  TIP3    H2 19883   0.417000   1.008000
19884         OT  1226  TIP3   OH2 19884  -0.834000  15.999400
19885         HT  1226  TIP3    H1 19885   0.417000   1.008000
19886         HT  1226  TIP3    H2 19886   0.417000   1.008000
19887         OT  1227  TIP3   OH2 19887  -0.834000  15.999400
19888         HT  1227  TIP3    H1 19888   0.417000   1.008000
19889         HT  1227  TIP3    H2 19889   0.417000   1.008000
19890         OT  1228  TIP3   OH2 19890  -0.834000  15.999400
19891         HT  1228  TIP3    H1 19891   0.417000   1.008000
19892         HT  1228  TIP3    H2 19892   0.417000   1.008000
19893         OT  1229  TIP3   OH2 19893  -0.834000  15.999400
19894         HT  1229  TIP3    H1 19894   0.417000   1.008000
19895         HT  1229  TIP3    H2 19895   0.417000   1.008000
19896         OT  1230  TIP3   OH2 19896  -0.834000  15.999400
19897         HT  1230  TIP3    H1 19897   0.417000   1.008000
19898         HT  1230  TIP3    H2 19898   0.417000   1.008000
19899         OT  1231  TIP3   OH2 19899  -0.834000  15.999400
19900         HT  1231  TIP3    H1 19900   0.417000   1.008000
19901         HT  1231  TIP3    H2 19901   0.417000   1.008000
19902         OT  1232  TIP3   OH2 19902  -0.834000  15.999400
19903         HT  1232  TIP3    H1 19903   0.417000   1.008000
19904         HT  1232  TIP3    H2 19904   0.417000   1.008000
19905         OT  1233  TIP3   OH2 19905  -0.834000  15.999400
19906         HT  1233  TIP3    H1 19906   0.417000   1.008000
19907         HT  1233  TIP3    H2 19907   0.417000   1.008000
19908         OT  1234  TIP3   OH2 19908  -0.834000  15.999400
19909         HT  1234  TIP3    H1 19909   0.417000   1.008000
19910         HT  1234  TIP3    H2 19910   0.417000   1.008000
19911         OT  1235  TIP3   OH2 19911  -0.834000  15.999400
19912         HT  1235  TIP3    H1 19912   0.417000   1.008000
19913         HT  1235  TIP3    H2 19913   0.417000   1.008000
19914         OT  1236  TIP3   OH2 19914  -0.834000  15.999400
19915         HT  1236  TIP3    H1 19915   0.417000   1.008000
19916         HT  1236  TIP3    H2 19916   0.417000   1.008000
19917         OT  1237  TIP3   OH2 19917  -0.834000  15.999400
19918         HT  1237  TIP3    H1 19918   0.417000   1.008000
19919         HT  1237  TIP3    H2 19919   0.417000   1.008000
19920         OT  1238  TIP3   OH2 19920  -0.834000  15.999400
19921         HT  1238  TIP3    H1 19921   0.417000   1.008000
19922         HT  1238  TIP3    H2 19922   0.417000   1.008000
19923         OT  1239  TIP3   OH2 19923  -0.834000  15.999400
19924         HT  1239  TIP3    H1 19924   0.417000   1.008000
19925         HT  1239  TIP3    H2 19925   0.417000   1.008000
19926         OT  1240  TIP3   OH2 19926  -0.834000  15.999400
19927         HT  1240  TIP3    H1 19927   0.417000   1.008000
19928         HT  1240  TIP3    H2 19928   0.417000   1.008000
19929         OT  1241  TIP3   OH2 19929  -0.834000  15.999400
19930         HT  1241  TIP3    H1 19930   0.417000   1.008000
19931         HT  1241  TIP3    H2 19931   0.417000   1.008000
19932         OT  1242  TIP3   OH2 19932  -0.834000  15.999400
19933         HT  1242  TIP3    H1 19933   0.417000   1.008000
19934         HT  1242  TIP3    H2 19934   0.417000   1.008000
19935         OT  1243  TIP3   OH2 19935  -0.834000  15.999400
19936         HT  1243  TIP3    H1 19936   0.417000   1.008000
19937         HT  1243  TIP3    H2 19937   0.417000   1.008000
19938         OT  1244  TIP3   OH2 19938  -0.834000  15.999400
19939         HT  1244  TIP3    H1 19939   0.417000   1.008000
19940         HT  1244  TIP3    H2 19940   0.417000   1.008000
19941         OT  1245  TIP3   OH2 19941  -0.834000  15.999400
19942         HT  1245  TIP3    H1 19942   0.417000   1.008000
19943         HT  1245  TIP3    H2 19943   0.417000   1.008000
19944         OT  1246  TIP3   OH2 19944  -0.834000  15.999400
19945         HT  1246  TIP3    H1 19945   0.417000   1.008000
19946         HT  1246  TIP3    H2 19946   0.417000   1.008000
19947         OT  1247  TIP3   OH2 19947  -0.834000  15.999400
19948         HT  1247  TIP3    H1 19948   0.417000   1.008000
19949         HT  1247  TIP3    H2 19949   0.417000   1.008000
19950         OT  1248  TIP3   OH2 19950  -0.834000  15.999400
19951         HT  1248  TIP3    H1 19951   0.417000   1.008000
19952         HT  1248  TIP3    H2 19952   0.417000   1.008000
19953         OT  1249  TIP3   OH2 19953  -0.834000  15.999400
19954         HT  1249  TIP3    H1 19954   0.417000   1.008000
19955         HT  1249  TIP3    H2 19955   0.417000   1.008000
19956         OT  1250  TIP3   OH2 19956  -0.834000  15.999400
19957         HT  1250  TIP3    H1 19957   0.417000   1.008000
19958         HT  1250  TIP3    H2 19958   0.417000   1.008000
19959         OT  1251  TIP3   OH2 19959  -0.834000  15.999400
19960         HT  1251  TIP3    H1 19960   0.417000   1.008000
19961         HT  1251  TIP3    H2 19961   0.417000   1.008000
19962         OT  1252  TIP3   OH2 19962  -0.834000  15.999400
19963         HT  1252  TIP3    H1 19963   0.417000   1.008000
19964         HT  1252  TIP3    H2 19964   0.417000   1.008000
19965         OT  1253  TIP3   OH2 19965  -0.834000  15.999400
19966         HT  1253  TIP3    H1 19966   0.417000   1.008000
19967         HT  1253  TIP3    H2 19967   0.417000   1.008000
19968         OT  1254  TIP3   OH2 19968  -0.834000  15.999400
19969         HT  1254  TIP3    H1 19969   0.417000   1.008000
19970         HT  1254  TIP3    H2 19970   0.417000   1.008000
19971         OT  1255  TIP3   OH2 19971  -0.834000  15.999400
19972         HT  1255  TIP3    H1 19972   0.417000   1.008000
19973         HT  1255  TIP3    H2 19973   0.417000   1.008000
19974         OT  1256  TIP3   OH2 19974  -0.834000  15.999400
19975         HT  1256  TIP3    H1 19975   0.417000   1.008000
19976         HT  1256  TIP3    H2 19976   0.417000   1.008000
19977         OT  1257  TIP3   OH2 19977  -0.834000  15.999400
19978         HT  1257  TIP3    H1 19978   0.417000   1.008000
19979         HT  1257  TIP3    H2 19979   0.417000   1.008000
19980         OT  1258  TIP3   OH2 19980  -0.834000  15.999400
19981         HT  1258  TIP3    H1 19981   0.417000   1.008000
19982         HT  1258  TIP3    H2 19982   0.417000   1.008000
19983         OT  1259  TIP3   OH2 19983  -0.834000  15.999400
19984         HT  1259  TIP3    H1 19984   0.417000   1.008000
19985         HT  1259  TIP3    H2 19985   0.417000   1.008000
19986         OT  1260  TIP3   OH2 19986  -0.834000  15.999400
19987         HT  1260  TIP3    H1 19987   0.417000   1.008000
19988         HT  1260  TIP3    H2 19988   0.417000   1.008000
19989         OT  1261  TIP3   OH2 19989  -0.834000  15.999400
19990         HT  1261  TIP3    H1 19990   0.417000   1.008000
19991         HT  1261  TIP3    H2 19991   0.417000   1.008000
19992         OT  1262  TIP3   OH2 19992  -0.834000  15.999400
19993         HT  1262  TIP3    H1 19993   0.417000   1.008000
19994         HT  1262  TIP3    H2 19994   0.417000   1.008000
19995         OT  1263  TIP3   OH2 19995  -0.834000  15.999400
19996         HT  1263  TIP3    H1 19996   0.417000   1.008000
19997         HT  1263  TIP3    H2 19997   0.417000   1.008000
19998         OT  1264  TIP3   OH2 19998  -0.834000  15.999400
19999         HT  1264  TIP3    H1 19999   0.417000   1.008000
20000         HT  1264  TIP3    H2 20000   0.417000   1.008000
20001         OT  1265  TIP3   OH2 20001  -0.834000  15.999400
20002         HT  1265  TIP3    H1 20002   0.417000   1.008000
20003         HT  1265  TIP3    H2 20003   0.417000   1.008000
20004         OT  1266  TIP3   OH2 20004  -0.834000  15.999400
20005         HT  1266  TIP3    H1 20005   0.417000   1.008000
20006         HT  1266  TIP3    H2 20006   0.417000   1.008000
20007         OT  1267  TIP3   OH2 20007  -0.834000  15.999400
20008         HT  1267  TIP3    H1 20008   0.417000   1.008000
20009         HT  1267  TIP3    H2 20009   0.417000   1.008000
20010         OT  1268  TIP3   OH2 20010  -0.834000  15.999400
20011         HT  1268  TIP3    H1 20011   0.417000   1.008000
20012         HT  1268  TIP3    H2 20012   0.417000   1.008000
20013         OT  1269  TIP3   OH2 20013  -0.834000  15.999400
20014         HT  1269  TIP3    H1 20014   0.417000   1.008000
20015         HT  1269  TIP3    H2 20015   0.417000   1.008000
20016         OT  1270  TIP3   OH2 20016  -0.834000  15.999400
20017         HT  1270  TIP3    H1 20017   0.417000   1.008000
20018         HT  1270  TIP3    H2 20018   0.417000   1.008000
20019         OT  1271  TIP3   OH2 20019  -0.834000  15.999400
20020         HT  1271  TIP3    H1 20020   0.417000   1.008000
20021         HT  1271  TIP3    H2 20021   0.417000   1.008000
20022         OT  1272  TIP3   OH2 20022  -0.834000  15.999400
20023         HT  1272  TIP3    H1 20023   0.417000   1.008000
20024         HT  1272  TIP3    H2 20024   0.417000   1.008000
20025         OT  1273  TIP3   OH2 20025  -0.834000  15.999400
20026         HT  1273  TIP3    H1 20026   0.417000   1.008000
20027         HT  1273  TIP3    H2 20027   0.417000   1.008000
20028         OT  1274  TIP3   OH2 20028  -0.834000  15.999400
20029         HT  1274  TIP3    H1 20029   0.417000   1.008000
20030         HT  1274  TIP3    H2 20030   0.417000   1.008000
20031         OT  1275  TIP3   OH2 20031  -0.834000  15.999400
20032         HT  1275  TIP3    H1 20032   0.417000   1.008000
20033         HT  1275  TIP3    H2 20033   0.417000   1.008000
20034         OT  1276  TIP3   OH2 20034  -0.834000  15.999400
20035         HT  1276  TIP3    H1 20035   0.417000   1.008000
20036         HT  1276  TIP3    H2 20036   0.417000   1.008000
20037         OT  1277  TIP3   OH2 20037  -0.834000  15.999400
20038         HT  1277  TIP3    H1 20038   0.417000   1.008000
20039         HT  1277  TIP3    H2 20039   0.417000   1.008000
20040         OT  1278  TIP3   OH2 20040  -0.834000  15.999400
20041         HT  1278  TIP3    H1 20041   0.417000   1.008000
20042         HT  1278  TIP3    H2 20042   0.417000   1.008000
20043         OT  1279  TIP3   OH2 20043  -0.834000  15.999400
20044         HT  1279  TIP3    H1 20044   0.417000   1.008000
20045         HT  1279  TIP3    H2 20045   0.417000   1.008000
20046         OT  1280  TIP3   OH2 20046  -0.834000  15.999400
20047         HT  1280  TIP3    H1 20047   0.417000   1.008000
20048         HT  1280  TIP3    H2 20048   0.417000   1.008000
20049         OT  1281  TIP3   OH2 20049  -0.834000  15.999400
20050         HT  1281  TIP3    H1 20050   0.417000   1.008000
20051         HT  1281  TIP3    H2 20051   0.417000   1.008000
20052         OT  1282  TIP3   OH2 20052  -0.834000  15.999400
20053         HT  1282  TIP3    H1 20053   0.417000   1.008000
20054         HT  1282  TIP3    H2 20054   0.417000   1.008000
20055         OT  1283  TIP3   OH2 20055  -0.834000  15.999400
20056         HT  1283  TIP3    H1 20056   0.417000   1.008000
20057         HT  1283  TIP3    H2 20057   0.417000   1.008000
20058         OT  1284  TIP3   OH2 20058  -0.834000  15.999400
20059         HT  1284  TIP3    H1 20059   0.417000   1.008000
20060         HT  1284  TIP3    H2 20060   0.417000   1.008000
20061         OT  1285  TIP3   OH2 20061  -0.834000  15.999400
20062         HT  1285  TIP3    H1 20062   0.417000   1.008000
20063         HT  1285  TIP3    H2 20063   0.417000   1.008000
20064         OT  1286  TIP3   OH2 20064  -0.834000  15.999400
20065         HT  1286  TIP3    H1 20065   0.417000   1.008000
20066         HT  1286  TIP3    H2 20066   0.417000   1.008000
20067         OT  1287  TIP3   OH2 20067  -0.834000  15.999400
20068         HT  1287  TIP3    H1 20068   0.417000   1.008000
20069         HT  1287  TIP3    H2 20069   0.417000   1.008000
20070         OT  1288  TIP3   OH2 20070  -0.834000  15.999400
20071         HT  1288  TIP3    H1 20071   0.417000   1.008000
20072         HT  1288  TIP3    H2 20072   0.417000   1.008000
20073         OT  1289  TIP3   OH2 20073  -0.834000  15.999400
20074         HT  1289  TIP3    H1 20074   0.417000   1.008000
20075         HT  1289  TIP3    H2 20075   0.417000   1.008000
20076         OT  1290  TIP3   OH2 20076  -0.834000  15.999400
20077         HT  1290  TIP3    H1 20077   0.417000   1.008000
20078         HT  1290  TIP3    H2 20078   0.417000   1.008000
20079         OT  1291  TIP3   OH2 20079  -0.834000  15.999400
20080         HT  1291  TIP3    H1 20080   0.417000   1.008000
20081         HT  1291  TIP3    H2 20081   0.417000   1.008000
20082         OT  1292  TIP3   OH2 20082  -0.834000  15.999400
20083         HT  1292  TIP3    H1 20083   0.417000   1.008000
20084         HT  1292  TIP3    H2 20084   0.417000   1.008000
20085         OT  1293  TIP3   OH2 20085  -0.834000  15.999400
20086         HT  1293  TIP3    H1 20086   0.417000   1.008000
20087         HT  1293  TIP3    H2 20087   0.417000   1.008000
20088         OT  1294  TIP3   OH2 20088  -0.834000  15.999400
20089         HT  1294  TIP3    H1 20089   0.417000   1.008000
20090         HT  1294  TIP3    H2 20090   0.417000   1.008000
20091         OT  1295  TIP3   OH2 20091  -0.834000  15.999400
20092         HT  1295  TIP3    H1 20092   0.417000   1.008000
20093         HT  1295  TIP3    H2 20093   0.417000   1.008000
20094         OT  1296  TIP3   OH2 20094  -0.834000  15.999400
20095         HT  1296  TIP3    H1 20095   0.417000   1.008000
20096         HT  1296  TIP3    H2 20096   0.417000   1.008000
20097         OT  1297  TIP3   OH2 20097  -0.834000  15.999400
20098         HT  1297  TIP3    H1 20098   0.417000   1.008000
20099         HT  1297  TIP3    H2 20099   0.417000   1.008000
20100         OT  1298  TIP3   OH2 20100  -0.834000  15.999400
20101         HT  1298  TIP3    H1 20101   0.417000   1.008000
20102         HT  1298  TIP3    H2 20102   0.417000   1.008000
20103         OT  1299  TIP3   OH2 20103  -0.834000  15.999400
20104         HT  1299  TIP3    H1 20104   0.417000   1.008000
20105         HT  1299  TIP3    H2 20105   0.417000   1.008000
20106         OT  1300  TIP3   OH2 20106  -0.834000  15.999400
20107         HT  1300  TIP3    H1 20107   0.417000   1.008000
20108         HT  1300  TIP3    H2 20108   0.417000   1.008000
20109         OT  1301  TIP3   OH2 20109  -0.834000  15.999400
20110         HT  1301  TIP3    H1 20110   0.417000   1.008000
20111         HT  1301  TIP3    H2 20111   0.417000   1.008000
20112         OT  1302  TIP3   OH2 20112  -0.834000  15.999400
20113         HT  1302  TIP3    H1 20113   0.417000   1.008000
20114         HT  1302  TIP3    H2 20114   0.417000   1.008000
20115         OT  1303  TIP3   OH2 20115  -0.834000  15.999400
20116         HT  1303  TIP3    H1 20116   0.417000   1.008000
20117         HT  1303  TIP3    H2 20117   0.417000   1.008000
20118         OT  1304  TIP3   OH2 20118  -0.834000  15.999400
20119         HT  1304  TIP3    H1 20119   0.417000   1.008000
20120         HT  1304  TIP3    H2 20120   0.417000   1.008000
20121         OT  1305  TIP3   OH2 20121  -0.834000  15.999400
20122         HT  1305  TIP3    H1 20122   0.417000   1.008000
20123         HT  1305  TIP3    H2 20123   0.417000   1.008000
20124         OT  1306  TIP3   OH2 20124  -0.834000  15.999400
20125         HT  1306  TIP3    H1 20125   0.417000   1.008000
20126         HT  1306  TIP3    H2 20126   0.417000   1.008000
20127         OT  1307  TIP3   OH2 20127  -0.834000  15.999400
20128         HT  1307  TIP3    H1 20128   0.417000   1.008000
20129         HT  1307  TIP3    H2 20129   0.417000   1.008000
20130         OT  1308  TIP3   OH2 20130  -0.834000  15.999400
20131         HT  1308  TIP3    H1 20131   0.417000   1.008000
20132         HT  1308  TIP3    H2 20132   0.417000   1.008000
20133         OT  1309  TIP3   OH2 20133  -0.834000  15.999400
20134         HT  1309  TIP3    H1 20134   0.417000   1.008000
20135         HT  1309  TIP3    H2 20135   0.417000   1.008000
20136         OT  1310  TIP3   OH2 20136  -0.834000  15.999400
20137         HT  1310  TIP3    H1 20137   0.417000   1.008000
20138         HT  1310  TIP3    H2 20138   0.417000   1.008000
20139         OT  1311  TIP3   OH2 20139  -0.834000  15.999400
20140         HT  1311  TIP3    H1 20140   0.417000   1.008000
20141         HT  1311  TIP3    H2 20141   0.417000   1.008000
20142         OT  1312  TIP3   OH2 20142  -0.834000  15.999400
20143         HT  1312  TIP3    H1 20143   0.417000   1.008000
20144         HT  1312  TIP3    H2 20144   0.417000   1.008000
20145         OT  1313  TIP3   OH2 20145  -0.834000  15.999400
20146         HT  1313  TIP3    H1 20146   0.417000   1.008000
20147         HT  1313  TIP3    H2 20147   0.417000   1.008000
20148         OT  1314  TIP3   OH2 20148  -0.834000  15.999400
20149         HT  1314  TIP3    H1 20149   0.417000   1.008000
20150         HT  1314  TIP3    H2 20150   0.417000   1.008000
20151         OT  1315  TIP3   OH2 20151  -0.834000  15.999400
20152         HT  1315  TIP3    H1 20152   0.417000   1.008000
20153         HT  1315  TIP3    H2 20153   0.417000   1.008000
20154         OT  1316  TIP3   OH2 20154  -0.834000  15.999400
20155         HT  1316  TIP3    H1 20155   0.417000   1.008000
20156         HT  1316  TIP3    H2 20156   0.417000   1.008000
20157         OT  1317  TIP3   OH2 20157  -0.834000  15.999400
20158         HT  1317  TIP3    H1 20158   0.417000   1.008000
20159         HT  1317  TIP3    H2 20159   0.417000   1.008000
20160         OT  1318  TIP3   OH2 20160  -0.834000  15.999400
20161         HT  1318  TIP3    H1 20161   0.417000   1.008000
20162         HT  1318  TIP3    H2 20162   0.417000   1.008000
20163         OT  1319  TIP3   OH2 20163  -0.834000  15.999400
20164         HT  1319  TIP3    H1 20164   0.417000   1.008000
20165         HT  1319  TIP3    H2 20165   0.417000   1.008000
20166         OT  1320  TIP3   OH2 20166  -0.834000  15.999400
20167         HT  1320  TIP3    H1 20167   0.417000   1.008000
20168         HT  1320  TIP3    H2 20168   0.417000   1.008000
20169         OT  1321  TIP3   OH2 20169  -0.834000  15.999400
20170         HT  1321  TIP3    H1 20170   0.417000   1.008000
20171         HT  1321  TIP3    H2 20171   0.417000   1.008000
20172         OT  1322  TIP3   OH2 20172  -0.834000  15.999400
20173         HT  1322  TIP3    H1 20173   0.417000   1.008000
20174         HT  1322  TIP3    H2 20174   0.417000   1.008000
20175         OT  1323  TIP3   OH2 20175  -0.834000  15.999400
20176         HT  1323  TIP3    H1 20176   0.417000   1.008000
20177         HT  1323  TIP3    H2 20177   0.417000   1.008000
20178         OT  1324  TIP3   OH2 20178  -0.834000  15.999400
20179         HT  1324  TIP3    H1 20179   0.417000   1.008000
20180         HT  1324  TIP3    H2 20180   0.417000   1.008000
20181         OT  1325  TIP3   OH2 20181  -0.834000  15.999400
20182         HT  1325  TIP3    H1 20182   0.417000   1.008000
20183         HT  1325  TIP3    H2 20183   0.417000   1.008000
20184         OT  1326  TIP3   OH2 20184  -0.834000  15.999400
20185         HT  1326  TIP3    H1 20185   0.417000   1.008000
20186         HT  1326  TIP3    H2 20186   0.417000   1.008000
20187         OT  1327  TIP3   OH2 20187  -0.834000  15.999400
20188         HT  1327  TIP3    H1 20188   0.417000   1.008000
20189         HT  1327  TIP3    H2 20189   0.417000   1.008000
20190         OT  1328  TIP3   OH2 20190  -0.834000  15.999400
20191         HT  1328  TIP3    H1 20191   0.417000   1.008000
20192         HT  1328  TIP3    H2 20192   0.417000   1.008000
20193         OT  1329  TIP3   OH2 20193  -0.834000  15.999400
20194         HT  1329  TIP3    H1 20194   0.417000   1.008000
20195         HT  1329  TIP3    H2 20195   0.417000   1.008000
20196         OT  1330  TIP3   OH2 20196  -0.834000  15.999400
20197         HT  1330  TIP3    H1 20197   0.417000   1.008000
20198         HT  1330  TIP3    H2 20198   0.417000   1.008000
20199         OT  1331  TIP3   OH2 20199  -0.834000  15.999400
20200         HT  1331  TIP3    H1 20200   0.417000   1.008000
20201         HT  1331  TIP3    H2 20201   0.417000   1.008000
20202         OT  1332  TIP3   OH2 20202  -0.834000  15.999400
20203         HT  1332  TIP3    H1 20203   0.417000   1.008000
20204         HT  1332  TIP3    H2 20204   0.417000   1.008000
20205         OT  1333  TIP3   OH2 20205  -0.834000  15.999400
20206         HT  1333  TIP3    H1 20206   0.417000   1.008000
20207         HT  1333  TIP3    H2 20207   0.417000   1.008000
20208         OT  1334  TIP3   OH2 20208  -0.834000  15.999400
20209         HT  1334  TIP3    H1 20209   0.417000   1.008000
20210         HT  1334  TIP3    H2 20210   0.417000   1.008000
20211         OT  1335  TIP3   OH2 20211  -0.834000  15.999400
20212         HT  1335  TIP3    H1 20212   0.417000   1.008000
20213         HT  1335  TIP3    H2 20213   0.417000   1.008000
20214         OT  1336  TIP3   OH2 20214  -0.834000  15.999400
20215         HT  1336  TIP3    H1 20215   0.417000   1.008000
20216         HT  1336  TIP3    H2 20216   0.417000   1.008000
20217         OT  1337  TIP3   OH2 20217  -0.834000  15.999400
20218         HT  1337  TIP3    H1 20218   0.417000   1.008000
20219         HT  1337  TIP3    H2 20219   0.417000   1.008000
20220         OT  1338  TIP3   OH2 20220  -0.834000  15.999400
20221         HT  1338  TIP3    H1 20221   0.417000   1.008000
20222         HT  1338  TIP3    H2 20222   0.417000   1.008000
20223         OT  1339  TIP3   OH2 20223  -0.834000  15.999400
20224         HT  1339  TIP3    H1 20224   0.417000   1.008000
20225         HT  1339  TIP3    H2 20225   0.417000   1.008000
20226         OT  1340  TIP3   OH2 20226  -0.834000  15.999400
20227         HT  1340  TIP3    H1 20227   0.417000   1.008000
20228         HT  1340  TIP3    H2 20228   0.417000   1.008000
20229         OT  1341  TIP3   OH2 20229  -0.834000  15.999400
20230         HT  1341  TIP3    H1 20230   0.417000   1.008000
20231         HT  1341  TIP3    H2 20231   0.417000   1.008000
20232         OT  1342  TIP3   OH2 20232  -0.834000  15.999400
20233         HT  1342  TIP3    H1 20233   0.417000   1.008000
20234         HT  1342  TIP3    H2 20234   0.417000   1.008000
20235         OT  1343  TIP3   OH2 20235  -0.834000  15.999400
20236         HT  1343  TIP3    H1 20236   0.417000   1.008000
20237         HT  1343  TIP3    H2 20237   0.417000   1.008000
20238         OT  1344  TIP3   OH2 20238  -0.834000  15.999400
20239         HT  1344  TIP3    H1 20239   0.417000   1.008000
20240         HT  1344  TIP3    H2 20240   0.417000   1.008000
20241         OT  1345  TIP3   OH2 20241  -0.834000  15.999400
20242         HT  1345  TIP3    H1 20242   0.417000   1.008000
20243         HT  1345  TIP3    H2 20243   0.417000   1.008000
20244         OT  1346  TIP3   OH2 20244  -0.834000  15.999400
20245         HT  1346  TIP3    H1 20245   0.417000   1.008000
20246         HT  1346  TIP3    H2 20246   0.417000   1.008000
20247         OT  1347  TIP3   OH2 20247  -0.834000  15.999400
20248         HT  1347  TIP3    H1 20248   0.417000   1.008000
20249         HT  1347  TIP3    H2 20249   0.417000   1.008000
20250         OT  1348  TIP3   OH2 20250  -0.834000  15.999400
20251         HT  1348  TIP3    H1 20251   0.417000   1.008000
20252         HT  1348  TIP3    H2 20252   0.417000   1.008000
20253         OT  1349  TIP3   OH2 20253  -0.834000  15.999400
20254         HT  1349  TIP3    H1 20254   0.417000   1.008000
20255         HT  1349  TIP3    H2 20255   0.417000   1.008000
20256         OT  1350  TIP3   OH2 20256  -0.834000  15.999400
20257         HT  1350  TIP3    H1 20257   0.417000   1.008000
20258         HT  1350  TIP3    H2 20258   0.417000   1.008000
20259         OT  1351  TIP3   OH2 20259  -0.834000  15.999400
20260         HT  1351  TIP3    H1 20260   0.417000   1.008000
20261         HT  1351  TIP3    H2 20261   0.417000   1.008000
20262         OT  1352  TIP3   OH2 20262  -0.834000  15.999400
20263         HT  1352  TIP3    H1 20263   0.417000   1.008000
20264         HT  1352  TIP3    H2 20264   0.417000   1.008000
20265         OT  1353  TIP3   OH2 20265  -0.834000  15.999400
20266         HT  1353  TIP3    H1 20266   0.417000   1.008000
20267         HT  1353  TIP3    H2 20267   0.417000   1.008000
20268         OT  1354  TIP3   OH2 20268  -0.834000  15.999400
20269         HT  1354  TIP3    H1 20269   0.417000   1.008000
20270         HT  1354  TIP3    H2 20270   0.417000   1.008000
20271         OT  1355  TIP3   OH2 20271  -0.834000  15.999400
20272         HT  1355  TIP3    H1 20272   0.417000   1.008000
20273         HT  1355  TIP3    H2 20273   0.417000   1.008000
20274         OT  1356  TIP3   OH2 20274  -0.834000  15.999400
20275         HT  1356  TIP3    H1 20275   0.417000   1.008000
20276         HT  1356  TIP3    H2 20276   0.417000   1.008000
20277         OT  1357  TIP3   OH2 20277  -0.834000  15.999400
20278         HT  1357  TIP3    H1 20278   0.417000   1.008000
20279         HT  1357  TIP3    H2 20279   0.417000   1.008000
20280         OT  1358  TIP3   OH2 20280  -0.834000  15.999400
20281         HT  1358  TIP3    H1 20281   0.417000   1.008000
20282         HT  1358  TIP3    H2 20282   0.417000   1.008000
20283         OT  1359  TIP3   OH2 20283  -0.834000  15.999400
20284         HT  1359  TIP3    H1 20284   0.417000   1.008000
20285         HT  1359  TIP3    H2 20285   0.417000   1.008000
20286         OT  1360  TIP3   OH2 20286  -0.834000  15.999400
20287         HT  1360  TIP3    H1 20287   0.417000   1.008000
20288         HT  1360  TIP3    H2 20288   0.417000   1.008000
20289         OT  1361  TIP3   OH2 20289  -0.834000  15.999400
20290         HT  1361  TIP3    H1 20290   0.417000   1.008000
20291         HT  1361  TIP3    H2 20291   0.417000   1.008000
20292         OT  1362  TIP3   OH2 20292  -0.834000  15.999400
20293         HT  1362  TIP3    H1 20293   0.417000   1.008000
20294         HT  1362  TIP3    H2 20294   0.417000   1.008000
20295         OT  1363  TIP3   OH2 20295  -0.834000  15.999400
20296         HT  1363  TIP3    H1 20296   0.417000   1.008000
20297         HT  1363  TIP3    H2 20297   0.417000   1.008000
20298         OT  1364  TIP3   OH2 20298  -0.834000  15.999400
20299         HT  1364  TIP3    H1 20299   0.417000   1.008000
20300         HT  1364  TIP3    H2 20300   0.417000   1.008000
20301         OT  1365  TIP3   OH2 20301  -0.834000  15.999400
20302         HT  1365  TIP3    H1 20302   0.417000   1.008000
20303         HT  1365  TIP3    H2 20303   0.417000   1.008000
20304         OT  1366  TIP3   OH2 20304  -0.834000  15.999400
20305         HT  1366  TIP3    H1 20305   0.417000   1.008000
20306         HT  1366  TIP3    H2 20306   0.417000   1.008000
20307         OT  1367  TIP3   OH2 20307  -0.834000  15.999400
20308         HT  1367  TIP3    H1 20308   0.417000   1.008000
20309         HT  1367  TIP3    H2 20309   0.417000   1.008000
20310         OT  1368  TIP3   OH2 20310  -0.834000  15.999400
20311         HT  1368  TIP3    H1 20311   0.417000   1.008000
20312         HT  1368  TIP3    H2 20312   0.417000   1.008000
20313         OT  1369  TIP3   OH2 20313  -0.834000  15.999400
20314         HT  1369  TIP3    H1 20314   0.417000   1.008000
20315         HT  1369  TIP3    H2 20315   0.417000   1.008000
20316         OT  1370  TIP3   OH2 20316  -0.834000  15.999400
20317         HT  1370  TIP3    H1 20317   0.417000   1.008000
20318         HT  1370  TIP3    H2 20318   0.417000   1.008000
20319         OT  1371  TIP3   OH2 20319  -0.834000  15.999400
20320         HT  1371  TIP3    H1 20320   0.417000   1.008000
20321         HT  1371  TIP3    H2 20321   0.417000   1.008000
20322         OT  1372  TIP3   OH2 20322  -0.834000  15.999400
20323         HT  1372  TIP3    H1 20323   0.417000   1.008000
20324         HT  1372  TIP3    H2 20324   0.417000   1.008000
20325         OT  1373  TIP3   OH2 20325  -0.834000  15.999400
20326         HT  1373  TIP3    H1 20326   0.417000   1.008000
20327         HT  1373  TIP3    H2 20327   0.417000   1.008000
20328         OT  1374  TIP3   OH2 20328  -0.834000  15.999400
20329         HT  1374  TIP3    H1 20329   0.417000   1.008000
20330         HT  1374  TIP3    H2 20330   0.417000   1.008000
20331         OT  1375  TIP3   OH2 20331  -0.834000  15.999400
20332         HT  1375  TIP3    H1 20332   0.417000   1.008000
20333         HT  1375  TIP3    H2 20333   0.417000   1.008000
20334         OT  1376  TIP3   OH2 20334  -0.834000  15.999400
20335         HT  1376  TIP3    H1 20335   0.417000   1.008000
20336         HT  1376  TIP3    H2 20336   0.417000   1.008000
20337         OT  1377  TIP3   OH2 20337  -0.834000  15.999400
20338         HT  1377  TIP3    H1 20338   0.417000   1.008000
20339         HT  1377  TIP3    H2 20339   0.417000   1.008000
20340         OT  1378  TIP3   OH2 20340  -0.834000  15.999400
20341         HT  1378  TIP3    H1 20341   0.417000   1.008000
20342         HT  1378  TIP3    H2 20342   0.417000   1.008000
20343         OT  1379  TIP3   OH2 20343  -0.834000  15.999400
20344         HT  1379  TIP3    H1 20344   0.417000   1.008000
20345         HT  1379  TIP3    H2 20345   0.417000   1.008000
20346         OT  1380  TIP3   OH2 20346  -0.834000  15.999400
20347         HT  1380  TIP3    H1 20347   0.417000   1.008000
20348         HT  1380  TIP3    H2 20348   0.417000   1.008000
20349         OT  1381  TIP3   OH2 20349  -0.834000  15.999400
20350         HT  1381  TIP3    H1 20350   0.417000   1.008000
20351         HT  1381  TIP3    H2 20351   0.417000   1.008000
20352         OT  1382  TIP3   OH2 20352  -0.834000  15.999400
20353         HT  1382  TIP3    H1 20353   0.417000   1.008000
20354         HT  1382  TIP3    H2 20354   0.417000   1.008000
20355         OT  1383  TIP3   OH2 20355  -0.834000  15.999400
20356         HT  1383  TIP3    H1 20356   0.417000   1.008000
20357         HT  1383  TIP3    H2 20357   0.417000   1.008000
20358         OT  1384  TIP3   OH2 20358  -0.834000  15.999400
20359         HT  1384  TIP3    H1 20359   0.417000   1.008000
20360         HT  1384  TIP3    H2 20360   0.417000   1.008000
20361         OT  1385  TIP3   OH2 20361  -0.834000  15.999400
20362         HT  1385  TIP3    H1 20362   0.417000   1.008000
20363         HT  1385  TIP3    H2 20363   0.417000   1.008000
20364         OT  1386  TIP3   OH2 20364  -0.834000  15.999400
20365         HT  1386  TIP3    H1 20365   0.417000   1.008000
20366         HT  1386  TIP3    H2 20366   0.417000   1.008000
20367         OT  1387  TIP3   OH2 20367  -0.834000  15.999400
20368         HT  1387  TIP3    H1 20368   0.417000   1.008000
20369         HT  1387  TIP3    H2 20369   0.417000   1.008000
20370         OT  1388  TIP3   OH2 20370  -0.834000  15.999400
20371         HT  1388  TIP3    H1 20371   0.417000   1.008000
20372         HT  1388  TIP3    H2 20372   0.417000   1.008000
20373         OT  1389  TIP3   OH2 20373  -0.834000  15.999400
20374         HT  1389  TIP3    H1 20374   0.417000   1.008000
20375         HT  1389  TIP3    H2 20375   0.417000   1.008000
20376         OT  1390  TIP3   OH2 20376  -0.834000  15.999400
20377         HT  1390  TIP3    H1 20377   0.417000   1.008000
20378         HT  1390  TIP3    H2 20378   0.417000   1.008000
20379         OT  1391  TIP3   OH2 20379  -0.834000  15.999400
20380         HT  1391  TIP3    H1 20380   0.417000   1.008000
20381         HT  1391  TIP3    H2 20381   0.417000   1.008000
20382         OT  1392  TIP3   OH2 20382  -0.834000  15.999400
20383         HT  1392  TIP3    H1 20383   0.417000   1.008000
20384         HT  1392  TIP3    H2 20384   0.417000   1.008000
20385         OT  1393  TIP3   OH2 20385  -0.834000  15.999400
20386         HT  1393  TIP3    H1 20386   0.417000   1.008000
20387         HT  1393  TIP3    H2 20387   0.417000   1.008000
20388         OT  1394  TIP3   OH2 20388  -0.834000  15.999400
20389         HT  1394  TIP3    H1 20389   0.417000   1.008000
20390         HT  1394  TIP3    H2 20390   0.417000   1.008000
20391         OT  1395  TIP3   OH2 20391  -0.834000  15.999400
20392         HT  1395  TIP3    H1 20392   0.417000   1.008000
20393         HT  1395  TIP3    H2 20393   0.417000   1.008000
20394         OT  1396  TIP3   OH2 20394  -0.834000  15.999400
20395         HT  1396  TIP3    H1 20395   0.417000   1.008000
20396         HT  1396  TIP3    H2 20396   0.417000   1.008000
20397         OT  1397  TIP3   OH2 20397  -0.834000  15.999400
20398         HT  1397  TIP3    H1 20398   0.417000   1.008000
20399         HT  1397  TIP3    H2 20399   0.417000   1.008000
20400         OT  1398  TIP3   OH2 20400  -0.834000  15.999400
20401         HT  1398  TIP3    H1 20401   0.417000   1.008000
20402         HT  1398  TIP3    H2 20402   0.417000   1.008000
20403         OT  1399  TIP3   OH2 20403  -0.834000  15.999400
20404         HT  1399  TIP3    H1 20404   0.417000   1.008000
20405         HT  1399  TIP3    H2 20405   0.417000   1.008000
20406         OT  1400  TIP3   OH2 20406  -0.834000  15.999400
20407         HT  1400  TIP3    H1 20407   0.417000   1.008000
20408         HT  1400  TIP3    H2 20408   0.417000   1.008000
20409         OT  1401  TIP3   OH2 20409  -0.834000  15.999400
20410         HT  1401  TIP3    H1 20410   0.417000   1.008000
20411         HT  1401  TIP3    H2 20411   0.417000   1.008000
20412         OT  1402  TIP3   OH2 20412  -0.834000  15.999400
20413         HT  1402  TIP3    H1 20413   0.417000   1.008000
20414         HT  1402  TIP3    H2 20414   0.417000   1.008000
20415         OT  1403  TIP3   OH2 20415  -0.834000  15.999400
20416         HT  1403  TIP3    H1 20416   0.417000   1.008000
20417         HT  1403  TIP3    H2 20417   0.417000   1.008000
20418         OT  1404  TIP3   OH2 20418  -0.834000  15.999400
20419         HT  1404  TIP3    H1 20419   0.417000   1.008000
20420         HT  1404  TIP3    H2 20420   0.417000   1.008000
20421         OT  1405  TIP3   OH2 20421  -0.834000  15.999400
20422         HT  1405  TIP3    H1 20422   0.417000   1.008000
20423         HT  1405  TIP3    H2 20423   0.417000   1.008000
20424         OT  1406  TIP3   OH2 20424  -0.834000  15.999400
20425         HT  1406  TIP3    H1 20425   0.417000   1.008000
20426         HT  1406  TIP3    H2 20426   0.417000   1.008000
20427         OT  1407  TIP3   OH2 20427  -0.834000  15.999400
20428         HT  1407  TIP3    H1 20428   0.417000   1.008000
20429         HT  1407  TIP3    H2 20429   0.417000   1.008000
20430         OT  1408  TIP3   OH2 20430  -0.834000  15.999400
20431         HT  1408  TIP3    H1 20431   0.417000   1.008000
20432         HT  1408  TIP3    H2 20432   0.417000   1.008000
20433         OT  1409  TIP3   OH2 20433  -0.834000  15.999400
20434         HT  1409  TIP3    H1 20434   0.417000   1.008000
20435         HT  1409  TIP3    H2 20435   0.417000   1.008000
20436         OT  1410  TIP3   OH2 20436  -0.834000  15.999400
20437         HT  1410  TIP3    H1 20437   0.417000   1.008000
20438         HT  1410  TIP3    H2 20438   0.417000   1.008000
20439         OT  1411  TIP3   OH2 20439  -0.834000  15.999400
20440         HT  1411  TIP3    H1 20440   0.417000   1.008000
20441         HT  1411  TIP3    H2 20441   0.417000   1.008000
20442         OT  1412  TIP3   OH2 20442  -0.834000  15.999400
20443         HT  1412  TIP3    H1 20443   0.417000   1.008000
20444         HT  1412  TIP3    H2 20444   0.417000   1.008000
20445         OT  1413  TIP3   OH2 20445  -0.834000  15.999400
20446         HT  1413  TIP3    H1 20446   0.417000   1.008000
20447         HT  1413  TIP3    H2 20447   0.417000   1.008000
20448         OT  1414  TIP3   OH2 20448  -0.834000  15.999400
20449         HT  1414  TIP3    H1 20449   0.417000   1.008000
20450         HT  1414  TIP3    H2 20450   0.417000   1.008000
20451         OT  1415  TIP3   OH2 20451  -0.834000  15.999400
20452         HT  1415  TIP3    H1 20452   0.417000   1.008000
20453         HT  1415  TIP3    H2 20453   0.417000   1.008000
20454         OT  1416  TIP3   OH2 20454  -0.834000  15.999400
20455         HT  1416  TIP3    H1 20455   0.417000   1.008000
20456         HT  1416  TIP3    H2 20456   0.417000   1.008000
20457         OT  1417  TIP3   OH2 20457  -0.834000  15.999400
20458         HT  1417  TIP3    H1 20458   0.417000   1.008000
20459         HT  1417  TIP3    H2 20459   0.417000   1.008000
20460         OT  1418  TIP3   OH2 20460  -0.834000  15.999400
20461         HT  1418  TIP3    H1 20461   0.417000   1.008000
20462         HT  1418  TIP3    H2 20462   0.417000   1.008000
20463         OT  1419  TIP3   OH2 20463  -0.834000  15.999400
20464         HT  1419  TIP3    H1 20464   0.417000   1.008000
20465         HT  1419  TIP3    H2 20465   0.417000   1.008000
20466         OT  1420  TIP3   OH2 20466  -0.834000  15.999400
20467         HT  1420  TIP3    H1 20467   0.417000   1.008000
20468         HT  1420  TIP3    H2 20468   0.417000   1.008000
20469         OT  1421  TIP3   OH2 20469  -0.834000  15.999400
20470         HT  1421  TIP3    H1 20470   0.417000   1.008000
20471         HT  1421  TIP3    H2 20471   0.417000   1.008000
20472         OT  1422  TIP3   OH2 20472  -0.834000  15.999400
20473         HT  1422  TIP3    H1 20473   0.417000   1.008000
20474         HT  1422  TIP3    H2 20474   0.417000   1.008000
20475         OT  1423  TIP3   OH2 20475  -0.834000  15.999400
20476         HT  1423  TIP3    H1 20476   0.417000   1.008000
20477         HT  1423  TIP3    H2 20477   0.417000   1.008000
20478         OT  1424  TIP3   OH2 20478  -0.834000  15.999400
20479         HT  1424  TIP3    H1 20479   0.417000   1.008000
20480         HT  1424  TIP3    H2 20480   0.417000   1.008000
20481         OT  1425  TIP3   OH2 20481  -0.834000  15.999400
20482         HT  1425  TIP3    H1 20482   0.417000   1.008000
20483         HT  1425  TIP3    H2 20483   0.417000   1.008000
20484         OT  1426  TIP3   OH2 20484  -0.834000  15.999400
20485         HT  1426  TIP3    H1 20485   0.417000   1.008000
20486         HT  1426  TIP3    H2 20486   0.417000   1.008000
20487         OT  1427  TIP3   OH2 20487  -0.834000  15.999400
20488         HT  1427  TIP3    H1 20488   0.417000   1.008000
20489         HT  1427  TIP3    H2 20489   0.417000   1.008000
20490         OT  1428  TIP3   OH2 20490  -0.834000  15.999400
20491         HT  1428  TIP3    H1 20491   0.417000   1.008000
20492         HT  1428  TIP3    H2 20492   0.417000   1.008000
20493         OT  1429  TIP3   OH2 20493  -0.834000  15.999400
20494         HT  1429  TIP3    H1 20494   0.417000   1.008000
20495         HT  1429  TIP3    H2 20495   0.417000   1.008000
20496         OT  1430  TIP3   OH2 20496  -0.834000  15.999400
20497         HT  1430  TIP3    H1 20497   0.417000   1.008000
20498         HT  1430  TIP3    H2 20498   0.417000   1.008000
20499         OT  1431  TIP3   OH2 20499  -0.834000  15.999400
20500         HT  1431  TIP3    H1 20500   0.417000   1.008000
20501         HT  1431  TIP3    H2 20501   0.417000   1.008000
20502         OT  1432  TIP3   OH2 20502  -0.834000  15.999400
20503         HT  1432  TIP3    H1 20503   0.417000   1.008000
20504         HT  1432  TIP3    H2 20504   0.417000   1.008000
20505         OT  1433  TIP3   OH2 20505  -0.834000  15.999400
20506         HT  1433  TIP3    H1 20506   0.417000   1.008000
20507         HT  1433  TIP3    H2 20507   0.417000   1.008000
20508         OT  1434  TIP3   OH2 20508  -0.834000  15.999400
20509         HT  1434  TIP3    H1 20509   0.417000   1.008000
20510         HT  1434  TIP3    H2 20510   0.417000   1.008000
20511         OT  1435  TIP3   OH2 20511  -0.834000  15.999400
20512         HT  1435  TIP3    H1 20512   0.417000   1.008000
20513         HT  1435  TIP3    H2 20513   0.417000   1.008000
20514         OT  1436  TIP3   OH2 20514  -0.834000  15.999400
20515         HT  1436  TIP3    H1 20515   0.417000   1.008000
20516         HT  1436  TIP3    H2 20516   0.417000   1.008000
20517         OT  1437  TIP3   OH2 20517  -0.834000  15.999400
20518         HT  1437  TIP3    H1 20518   0.417000   1.008000
20519         HT  1437  TIP3    H2 20519   0.417000   1.008000
20520         OT  1438  TIP3   OH2 20520  -0.834000  15.999400
20521         HT  1438  TIP3    H1 20521   0.417000   1.008000
20522         HT  1438  TIP3    H2 20522   0.417000   1.008000
20523         OT  1439  TIP3   OH2 20523  -0.834000  15.999400
20524         HT  1439  TIP3    H1 20524   0.417000   1.008000
20525         HT  1439  TIP3    H2 20525   0.417000   1.008000
20526         OT  1440  TIP3   OH2 20526  -0.834000  15.999400
20527         HT  1440  TIP3    H1 20527   0.417000   1.008000
20528         HT  1440  TIP3    H2 20528   0.417000   1.008000
20529         OT  1441  TIP3   OH2 20529  -0.834000  15.999400
20530         HT  1441  TIP3    H1 20530   0.417000   1.008000
20531         HT  1441  TIP3    H2 20531   0.417000   1.008000
20532         OT  1442  TIP3   OH2 20532  -0.834000  15.999400
20533         HT  1442  TIP3    H1 20533   0.417000   1.008000
20534         HT  1442  TIP3    H2 20534   0.417000   1.008000
20535         OT  1443  TIP3   OH2 20535  -0.834000  15.999400
20536         HT  1443  TIP3    H1 20536   0.417000   1.008000
20537         HT  1443  TIP3    H2 20537   0.417000   1.008000
20538         OT  1444  TIP3   OH2 20538  -0.834000  15.999400
20539         HT  1444  TIP3    H1 20539   0.417000   1.008000
20540         HT  1444  TIP3    H2 20540   0.417000   1.008000
20541         OT  1445  TIP3   OH2 20541  -0.834000  15.999400
20542         HT  1445  TIP3    H1 20542   0.417000   1.008000
20543         HT  1445  TIP3    H2 20543   0.417000   1.008000
20544         OT  1446  TIP3   OH2 20544  -0.834000  15.999400
20545         HT  1446  TIP3    H1 20545   0.417000   1.008000
20546         HT  1446  TIP3    H2 20546   0.417000   1.008000
20547         OT  1447  TIP3   OH2 20547  -0.834000  15.999400
20548         HT  1447  TIP3    H1 20548   0.417000   1.008000
20549         HT  1447  TIP3    H2 20549   0.417000   1.008000
20550         OT  1448  TIP3   OH2 20550  -0.834000  15.999400
20551         HT  1448  TIP3    H1 20551   0.417000   1.008000
20552         HT  1448  TIP3    H2 20552   0.417000   1.008000
20553         OT  1449  TIP3   OH2 20553  -0.834000  15.999400
20554         HT  1449  TIP3    H1 20554   0.417000   1.008000
20555         HT  1449  TIP3    H2 20555   0.417000   1.008000
20556         OT  1450  TIP3   OH2 20556  -0.834000  15.999400
20557         HT  1450  TIP3    H1 20557   0.417000   1.008000
20558         HT  1450  TIP3    H2 20558   0.417000   1.008000
20559         OT  1451  TIP3   OH2 20559  -0.834000  15.999400
20560         HT  1451  TIP3    H1 20560   0.417000   1.008000
20561         HT  1451  TIP3    H2 20561   0.417000   1.008000
20562         OT  1452  TIP3   OH2 20562  -0.834000  15.999400
20563         HT  1452  TIP3    H1 20563   0.417000   1.008000
20564         HT  1452  TIP3    H2 20564   0.417000   1.008000
20565         OT  1453  TIP3   OH2 20565  -0.834000  15.999400
20566         HT  1453  TIP3    H1 20566   0.417000   1.008000
20567         HT  1453  TIP3    H2 20567   0.417000   1.008000
20568         OT  1454  TIP3   OH2 20568  -0.834000  15.999400
20569         HT  1454  TIP3    H1 20569   0.417000   1.008000
20570         HT  1454  TIP3    H2 20570   0.417000   1.008000
20571         OT  1455  TIP3   OH2 20571  -0.834000  15.999400
20572         HT  1455  TIP3    H1 20572   0.417000   1.008000
20573         HT  1455  TIP3    H2 20573   0.417000   1.008000
20574         OT  1456  TIP3   OH2 20574  -0.834000  15.999400
20575         HT  1456  TIP3    H1 20575   0.417000   1.008000
20576         HT  1456  TIP3    H2 20576   0.417000   1.008000
20577         OT  1457  TIP3   OH2 20577  -0.834000  15.999400
20578         HT  1457  TIP3    H1 20578   0.417000   1.008000
20579         HT  1457  TIP3    H2 20579   0.417000   1.008000
20580         OT  1458  TIP3   OH2 20580  -0.834000  15.999400
20581         HT  1458  TIP3    H1 20581   0.417000   1.008000
20582         HT  1458  TIP3    H2 20582   0.417000   1.008000
20583         OT  1459  TIP3   OH2 20583  -0.834000  15.999400
20584         HT  1459  TIP3    H1 20584   0.417000   1.008000
20585         HT  1459  TIP3    H2 20585   0.417000   1.008000
20586         OT  1460  TIP3   OH2 20586  -0.834000  15.999400
20587         HT  1460  TIP3    H1 20587   0.417000   1.008000
20588         HT  1460  TIP3    H2 20588   0.417000   1.008000
20589         OT  1461  TIP3   OH2 20589  -0.834000  15.999400
20590         HT  1461  TIP3    H1 20590   0.417000   1.008000
20591         HT  1461  TIP3    H2 20591   0.417000   1.008000
20592         OT  1462  TIP3   OH2 20592  -0.834000  15.999400
20593         HT  1462  TIP3    H1 20593   0.417000   1.008000
20594         HT  1462  TIP3    H2 20594   0.417000   1.008000
20595         OT  1463  TIP3   OH2 20595  -0.834000  15.999400
20596         HT  1463  TIP3    H1 20596   0.417000   1.008000
20597         HT  1463  TIP3    H2 20597   0.417000   1.008000
20598         OT  1464  TIP3   OH2 20598  -0.834000  15.999400
20599         HT  1464  TIP3    H1 20599   0.417000   1.008000
20600         HT  1464  TIP3    H2 20600   0.417000   1.008000
20601         OT  1465  TIP3   OH2 20601  -0.834000  15.999400
20602         HT  1465  TIP3    H1 20602   0.417000   1.008000
20603         HT  1465  TIP3    H2 20603   0.417000   1.008000
20604         OT  1466  TIP3   OH2 20604  -0.834000  15.999400
20605         HT  1466  TIP3    H1 20605   0.417000   1.008000
20606         HT  1466  TIP3    H2 20606   0.417000   1.008000
20607         OT  1467  TIP3   OH2 20607  -0.834000  15.999400
20608         HT  1467  TIP3    H1 20608   0.417000   1.008000
20609         HT  1467  TIP3    H2 20609   0.417000   1.008000
20610         OT  1468  TIP3   OH2 20610  -0.834000  15.999400
20611         HT  1468  TIP3    H1 20611   0.417000   1.008000
20612         HT  1468  TIP3    H2 20612   0.417000   1.008000
20613         OT  1469  TIP3   OH2 20613  -0.834000  15.999400
20614         HT  1469  TIP3    H1 20614   0.417000   1.008000
20615         HT  1469  TIP3    H2 20615   0.417000   1.008000
20616         OT  1470  TIP3   OH2 20616  -0.834000  15.999400
20617         HT  1470  TIP3    H1 20617   0.417000   1.008000
20618         HT  1470  TIP3    H2 20618   0.417000   1.008000
20619         OT  1471  TIP3   OH2 20619  -0.834000  15.999400
20620         HT  1471  TIP3    H1 20620   0.417000   1.008000
20621         HT  1471  TIP3    H2 20621   0.417000   1.008000
20622         OT  1472  TIP3   OH2 20622  -0.834000  15.999400
20623         HT  1472  TIP3    H1 20623   0.417000   1.008000
20624         HT  1472  TIP3    H2 20624   0.417000   1.008000
20625         OT  1473  TIP3   OH2 20625  -0.834000  15.999400
20626         HT  1473  TIP3    H1 20626   0.417000   1.008000
20627         HT  1473  TIP3    H2 20627   0.417000   1.008000
20628         OT  1474  TIP3   OH2 20628  -0.834000  15.999400
20629         HT  1474  TIP3    H1 20629   0.417000   1.008000
20630         HT  1474  TIP3    H2 20630   0.417000   1.008000
20631         OT  1475  TIP3   OH2 20631  -0.834000  15.999400
20632         HT  1475  TIP3    H1 20632   0.417000   1.008000
20633         HT  1475  TIP3    H2 20633   0.417000   1.008000
20634         OT  1476  TIP3   OH2 20634  -0.834000  15.999400
20635         HT  1476  TIP3    H1 20635   0.417000   1.008000
20636         HT  1476  TIP3    H2 20636   0.417000   1.008000
20637         OT  1477  TIP3   OH2 20637  -0.834000  15.999400
20638         HT  1477  TIP3    H1 20638   0.417000   1.008000
20639         HT  1477  TIP3    H2 20639   0.417000   1.008000
20640         OT  1478  TIP3   OH2 20640  -0.834000  15.999400
20641         HT  1478  TIP3    H1 20641   0.417000   1.008000
20642         HT  1478  TIP3    H2 20642   0.417000   1.008000
20643         OT  1479  TIP3   OH2 20643  -0.834000  15.999400
20644         HT  1479  TIP3    H1 20644   0.417000   1.008000
20645         HT  1479  TIP3    H2 20645   0.417000   1.008000
20646         OT  1480  TIP3   OH2 20646  -0.834000  15.999400
20647         HT  1480  TIP3    H1 20647   0.417000   1.008000
20648         HT  1480  TIP3    H2 20648   0.417000   1.008000
20649         OT  1481  TIP3   OH2 20649  -0.834000  15.999400
20650         HT  1481  TIP3    H1 20650   0.417000   1.008000
20651         HT  1481  TIP3    H2 20651   0.417000   1.008000
20652         OT  1482  TIP3   OH2 20652  -0.834000  15.999400
20653         HT  1482  TIP3    H1 20653   0.417000   1.008000
20654         HT  1482  TIP3    H2 20654   0.417000   1.008000
20655         OT  1483  TIP3   OH2 20655  -0.834000  15.999400
20656         HT  1483  TIP3    H1 20656   0.417000   1.008000
20657         HT  1483  TIP3    H2 20657   0.417000   1.008000
20658         OT  1484  TIP3   OH2 20658  -0.834000  15.999400
20659         HT  1484  TIP3    H1 20659   0.417000   1.008000
20660         HT  1484  TIP3    H2 20660   0.417000   1.008000
20661         OT  1485  TIP3   OH2 20661  -0.834000  15.999400
20662         HT  1485  TIP3    H1 20662   0.417000   1.008000
20663         HT  1485  TIP3    H2 20663   0.417000   1.008000
20664         OT  1486  TIP3   OH2 20664  -0.834000  15.999400
20665         HT  1486  TIP3    H1 20665   0.417000   1.008000
20666         HT  1486  TIP3    H2 20666   0.417000   1.008000
20667         OT  1487  TIP3   OH2 20667  -0.834000  15.999400
20668         HT  1487  TIP3    H1 20668   0.417000   1.008000
20669         HT  1487  TIP3    H2 20669   0.417000   1.008000
20670         OT  1488  TIP3   OH2 20670  -0.834000  15.999400
20671         HT  1488  TIP3    H1 20671   0.417000   1.008000
20672         HT  1488  TIP3    H2 20672   0.417000   1.008000
20673         OT  1489  TIP3   OH2 20673  -0.834000  15.999400
20674         HT  1489  TIP3    H1 20674   0.417000   1.008000
20675         HT  1489  TIP3    H2 20675   0.417000   1.008000
20676         OT  1490  TIP3   OH2 20676  -0.834000  15.999400
20677         HT  1490  TIP3    H1 20677   0.417000   1.008000
20678         HT  1490  TIP3    H2 20678   0.417000   1.008000
20679         OT  1491  TIP3   OH2 20679  -0.834000  15.999400
20680         HT  1491  TIP3    H1 20680   0.417000   1.008000
20681         HT  1491  TIP3    H2 20681   0.417000   1.008000
20682         OT  1492  TIP3   OH2 20682  -0.834000  15.999400
20683         HT  1492  TIP3    H1 20683   0.417000   1.008000
20684         HT  1492  TIP3    H2 20684   0.417000   1.008000
20685         OT  1493  TIP3   OH2 20685  -0.834000  15.999400
20686         HT  1493  TIP3    H1 20686   0.417000   1.008000
20687         HT  1493  TIP3    H2 20687   0.417000   1.008000
20688         OT  1494  TIP3   OH2 20688  -0.834000  15.999400
20689         HT  1494  TIP3    H1 20689   0.417000   1.008000
20690         HT  1494  TIP3    H2 20690   0.417000   1.008000
20691         OT  1495  TIP3   OH2 20691  -0.834000  15.999400
20692         HT  1495  TIP3    H1 20692   0.417000   1.008000
20693         HT  1495  TIP3    H2 20693   0.417000   1.008000
20694         OT  1496  TIP3   OH2 20694  -0.834000  15.999400
20695         HT  1496  TIP3    H1 20695   0.417000   1.008000
20696         HT  1496  TIP3    H2 20696   0.417000   1.008000
20697         OT  1497  TIP3   OH2 20697  -0.834000  15.999400
20698         HT  1497  TIP3    H1 20698   0.417000   1.008000
20699         HT  1497  TIP3    H2 20699   0.417000   1.008000
20700         OT  1498  TIP3   OH2 20700  -0.834000  15.999400
20701         HT  1498  TIP3    H1 20701   0.417000   1.008000
20702         HT  1498  TIP3    H2 20702   0.417000   1.008000
20703         OT  1499  TIP3   OH2 20703  -0.834000  15.999400
20704         HT  1499  TIP3    H1 20704   0.417000   1.008000
20705         HT  1499  TIP3    H2 20705   0.417000   1.008000
20706         OT  1500  TIP3   OH2 20706  -0.834000  15.999400
20707         HT  1500  TIP3    H1 20707   0.417000   1.008000
20708         HT  1500  TIP3    H2 20708   0.417000   1.008000
20709         OT  1501  TIP3   OH2 20709  -0.834000  15.999400
20710         HT  1501  TIP3    H1 20710   0.417000   1.008000
20711         HT  1501  TIP3    H2 20711   0.417000   1.008000
20712         OT  1502  TIP3   OH2 20712  -0.834000  15.999400
20713         HT  1502  TIP3    H1 20713   0.417000   1.008000
20714         HT  1502  TIP3    H2 20714   0.417000   1.008000
20715         OT  1503  TIP3   OH2 20715  -0.834000  15.999400
20716         HT  1503  TIP3    H1 20716   0.417000   1.008000
20717         HT  1503  TIP3    H2 20717   0.417000   1.008000
20718         OT  1504  TIP3   OH2 20718  -0.834000  15.999400
20719         HT  1504  TIP3    H1 20719   0.417000   1.008000
20720         HT  1504  TIP3    H2 20720   0.417000   1.008000
20721         OT  1505  TIP3   OH2 20721  -0.834000  15.999400
20722         HT  1505  TIP3    H1 20722   0.417000   1.008000
20723         HT  1505  TIP3    H2 20723   0.417000   1.008000
20724         OT  1506  TIP3   OH2 20724  -0.834000  15.999400
20725         HT  1506  TIP3    H1 20725   0.417000   1.008000
20726         HT  1506  TIP3    H2 20726   0.417000   1.008000
20727         OT  1507  TIP3   OH2 20727  -0.834000  15.999400
20728         HT  1507  TIP3    H1 20728   0.417000   1.008000
20729         HT  1507  TIP3    H2 20729   0.417000   1.008000
20730         OT  1508  TIP3   OH2 20730  -0.834000  15.999400
20731         HT  1508  TIP3    H1 20731   0.417000   1.008000
20732         HT  1508  TIP3    H2 20732   0.417000   1.008000
20733         OT  1509  TIP3   OH2 20733  -0.834000  15.999400
20734         HT  1509  TIP3    H1 20734   0.417000   1.008000
20735         HT  1509  TIP3    H2 20735   0.417000   1.008000
20736         OT  1510  TIP3   OH2 20736  -0.834000  15.999400
20737         HT  1510  TIP3    H1 20737   0.417000   1.008000
20738         HT  1510  TIP3    H2 20738   0.417000   1.008000
20739         OT  1511  TIP3   OH2 20739  -0.834000  15.999400
20740         HT  1511  TIP3    H1 20740   0.417000   1.008000
20741         HT  1511  TIP3    H2 20741   0.417000   1.008000
20742         OT  1512  TIP3   OH2 20742  -0.834000  15.999400
20743         HT  1512  TIP3    H1 20743   0.417000   1.008000
20744         HT  1512  TIP3    H2 20744   0.417000   1.008000
20745         OT  1513  TIP3   OH2 20745  -0.834000  15.999400
20746         HT  1513  TIP3    H1 20746   0.417000   1.008000
20747         HT  1513  TIP3    H2 20747   0.417000   1.008000
20748         OT  1514  TIP3   OH2 20748  -0.834000  15.999400
20749         HT  1514  TIP3    H1 20749   0.417000   1.008000
20750         HT  1514  TIP3    H2 20750   0.417000   1.008000
20751         OT  1515  TIP3   OH2 20751  -0.834000  15.999400
20752         HT  1515  TIP3    H1 20752   0.417000   1.008000
20753         HT  1515  TIP3    H2 20753   0.417000   1.008000
20754         OT  1516  TIP3   OH2 20754  -0.834000  15.999400
20755         HT  1516  TIP3    H1 20755   0.417000   1.008000
20756         HT  1516  TIP3    H2 20756   0.417000   1.008000
20757         OT  1517  TIP3   OH2 20757  -0.834000  15.999400
20758         HT  1517  TIP3    H1 20758   0.417000   1.008000
20759         HT  1517  TIP3    H2 20759   0.417000   1.008000
20760         OT  1518  TIP3   OH2 20760  -0.834000  15.999400
20761         HT  1518  TIP3    H1 20761   0.417000   1.008000
20762         HT  1518  TIP3    H2 20762   0.417000   1.008000
20763         OT  1519  TIP3   OH2 20763  -0.834000  15.999400
20764         HT  1519  TIP3    H1 20764   0.417000   1.008000
20765         HT  1519  TIP3    H2 20765   0.417000   1.008000
20766         OT  1520  TIP3   OH2 20766  -0.834000  15.999400
20767         HT  1520  TIP3    H1 20767   0.417000   1.008000
20768         HT  1520  TIP3    H2 20768   0.417000   1.008000
20769         OT  1521  TIP3   OH2 20769  -0.834000  15.999400
20770         HT  1521  TIP3    H1 20770   0.417000   1.008000
20771         HT  1521  TIP3    H2 20771   0.417000   1.008000
20772         OT  1522  TIP3   OH2 20772  -0.834000  15.999400
20773         HT  1522  TIP3    H1 20773   0.417000   1.008000
20774         HT  1522  TIP3    H2 20774   0.417000   1.008000
20775         OT  1523  TIP3   OH2 20775  -0.834000  15.999400
20776         HT  1523  TIP3    H1 20776   0.417000   1.008000
20777         HT  1523  TIP3    H2 20777   0.417000   1.008000
20778         OT  1524  TIP3   OH2 20778  -0.834000  15.999400
20779         HT  1524  TIP3    H1 20779   0.417000   1.008000
20780         HT  1524  TIP3    H2 20780   0.417000   1.008000
20781         OT  1525  TIP3   OH2 20781  -0.834000  15.999400
20782         HT  1525  TIP3    H1 20782   0.417000   1.008000
20783         HT  1525  TIP3    H2 20783   0.417000   1.008000
20784         OT  1526  TIP3   OH2 20784  -0.834000  15.999400
20785         HT  1526  TIP3    H1 20785   0.417000   1.008000
20786         HT  1526  TIP3    H2 20786   0.417000   1.008000
20787         OT  1527  TIP3   OH2 20787  -0.834000  15.999400
20788         HT  1527  TIP3    H1 20788   0.417000   1.008000
20789         HT  1527  TIP3    H2 20789   0.417000   1.008000
20790         OT  1528  TIP3   OH2 20790  -0.834000  15.999400
20791         HT  1528  TIP3    H1 20791   0.417000   1.008000
20792         HT  1528  TIP3    H2 20792   0.417000   1.008000
20793         OT  1529  TIP3   OH2 20793  -0.834000  15.999400
20794         HT  1529  TIP3    H1 20794   0.417000   1.008000
20795         HT  1529  TIP3    H2 20795   0.417000   1.008000
20796         OT  1530  TIP3   OH2 20796  -0.834000  15.999400
20797         HT  1530  TIP3    H1 20797   0.417000   1.008000
20798         HT  1530  TIP3    H2 20798   0.417000   1.008000
20799         OT  1531  TIP3   OH2 20799  -0.834000  15.999400
20800         HT  1531  TIP3    H1 20800   0.417000   1.008000
20801         HT  1531  TIP3    H2 20801   0.417000   1.008000
20802         OT  1532  TIP3   OH2 20802  -0.834000  15.999400
20803         HT  1532  TIP3    H1 20803   0.417000   1.008000
20804         HT  1532  TIP3    H2 20804   0.417000   1.008000
20805         OT  1533  TIP3   OH2 20805  -0.834000  15.999400
20806         HT  1533  TIP3    H1 20806   0.417000   1.008000
20807         HT  1533  TIP3    H2 20807   0.417000   1.008000
20808         OT  1534  TIP3   OH2 20808  -0.834000  15.999400
20809         HT  1534  TIP3    H1 20809   0.417000   1.008000
20810         HT  1534  TIP3    H2 20810   0.417000   1.008000
20811         OT  1535  TIP3   OH2 20811  -0.834000  15.999400
20812         HT  1535  TIP3    H1 20812   0.417000   1.008000
20813         HT  1535  TIP3    H2 20813   0.417000   1.008000
20814         OT  1536  TIP3   OH2 20814  -0.834000  15.999400
20815         HT  1536  TIP3    H1 20815   0.417000   1.008000
20816         HT  1536  TIP3    H2 20816   0.417000   1.008000
20817         OT  1537  TIP3   OH2 20817  -0.834000  15.999400
20818         HT  1537  TIP3    H1 20818   0.417000   1.008000
20819         HT  1537  TIP3    H2 20819   0.417000   1.008000
20820         OT  1538  TIP3   OH2 20820  -0.834000  15.999400
20821         HT  1538  TIP3    H1 20821   0.417000   1.008000
20822         HT  1538  TIP3    H2 20822   0.417000   1.008000
20823         OT  1539  TIP3   OH2 20823  -0.834000  15.999400
20824         HT  1539  TIP3    H1 20824   0.417000   1.008000
20825         HT  1539  TIP3    H2 20825   0.417000   1.008000
20826         OT  1540  TIP3   OH2 20826  -0.834000  15.999400
20827         HT  1540  TIP3    H1 20827   0.417000   1.008000
20828         HT  1540  TIP3    H2 20828   0.417000   1.008000
20829         OT  1541  TIP3   OH2 20829  -0.834000  15.999400
20830         HT  1541  TIP3    H1 20830   0.417000   1.008000
20831         HT  1541  TIP3    H2 20831   0.417000   1.008000
20832         OT  1542  TIP3   OH2 20832  -0.834000  15.999400
20833         HT  1542  TIP3    H1 20833   0.417000   1.008000
20834         HT  1542  TIP3    H2 20834   0.417000   1.008000
20835         OT  1543  TIP3   OH2 20835  -0.834000  15.999400
20836         HT  1543  TIP3    H1 20836   0.417000   1.008000
20837         HT  1543  TIP3    H2 20837   0.417000   1.008000
20838         OT  1544  TIP3   OH2 20838  -0.834000  15.999400
20839         HT  1544  TIP3    H1 20839   0.417000   1.008000
20840         HT  1544  TIP3    H2 20840   0.417000   1.008000
20841         OT  1545  TIP3   OH2 20841  -0.834000  15.999400
20842         HT  1545  TIP3    H1 20842   0.417000   1.008000
20843         HT  1545  TIP3    H2 20843   0.417000   1.008000
20844         OT  1546  TIP3   OH2 20844  -0.834000  15.999400
20845         HT  1546  TIP3    H1 20845   0.417000   1.008000
20846         HT  1546  TIP3    H2 20846   0.417000   1.008000
20847         OT  1547  TIP3   OH2 20847  -0.834000  15.999400
20848         HT  1547  TIP3    H1 20848   0.417000   1.008000
20849         HT  1547  TIP3    H2 20849   0.417000   1.008000
20850         OT  1548  TIP3   OH2 20850  -0.834000  15.999400
20851         HT  1548  TIP3    H1 20851   0.417000   1.008000
20852         HT  1548  TIP3    H2 20852   0.417000   1.008000
20853         OT  1549  TIP3   OH2 20853  -0.834000  15.999400
20854         HT  1549  TIP3    H1 20854   0.417000   1.008000
20855         HT  1549  TIP3    H2 20855   0.417000   1.008000
20856         OT  1550  TIP3   OH2 20856  -0.834000  15.999400
20857         HT  1550  TIP3    H1 20857   0.417000   1.008000
20858         HT  1550  TIP3    H2 20858   0.417000   1.008000
20859         OT  1551  TIP3   OH2 20859  -0.834000  15.999400
20860         HT  1551  TIP3    H1 20860   0.417000   1.008000
20861         HT  1551  TIP3    H2 20861   0.417000   1.008000
20862         OT  1552  TIP3   OH2 20862  -0.834000  15.999400
20863         HT  1552  TIP3    H1 20863   0.417000   1.008000
20864         HT  1552  TIP3    H2 20864   0.417000   1.008000
20865         OT  1553  TIP3   OH2 20865  -0.834000  15.999400
20866         HT  1553  TIP3    H1 20866   0.417000   1.008000
20867         HT  1553  TIP3    H2 20867   0.417000   1.008000
20868         OT  1554  TIP3   OH2 20868  -0.834000  15.999400
20869         HT  1554  TIP3    H1 20869   0.417000   1.008000
20870         HT  1554  TIP3    H2 20870   0.417000   1.008000
20871         OT  1555  TIP3   OH2 20871  -0.834000  15.999400
20872         HT  1555  TIP3    H1 20872   0.417000   1.008000
20873         HT  1555  TIP3    H2 20873   0.417000   1.008000
20874         OT  1556  TIP3   OH2 20874  -0.834000  15.999400
20875         HT  1556  TIP3    H1 20875   0.417000   1.008000
20876         HT  1556  TIP3    H2 20876   0.417000   1.008000
20877         OT  1557  TIP3   OH2 20877  -0.834000  15.999400
20878         HT  1557  TIP3    H1 20878   0.417000   1.008000
20879         HT  1557  TIP3    H2 20879   0.417000   1.008000
20880         OT  1558  TIP3   OH2 20880  -0.834000  15.999400
20881         HT  1558  TIP3    H1 20881   0.417000   1.008000
20882         HT  1558  TIP3    H2 20882   0.417000   1.008000
20883         OT  1559  TIP3   OH2 20883  -0.834000  15.999400
20884         HT  1559  TIP3    H1 20884   0.417000   1.008000
20885         HT  1559  TIP3    H2 20885   0.417000   1.008000
20886         OT  1560  TIP3   OH2 20886  -0.834000  15.999400
20887         HT  1560  TIP3    H1 20887   0.417000   1.008000
20888         HT  1560  TIP3    H2 20888   0.417000   1.008000
20889         OT  1561  TIP3   OH2 20889  -0.834000  15.999400
20890         HT  1561  TIP3    H1 20890   0.417000   1.008000
20891         HT  1561  TIP3    H2 20891   0.417000   1.008000
20892         OT  1562  TIP3   OH2 20892  -0.834000  15.999400
20893         HT  1562  TIP3    H1 20893   0.417000   1.008000
20894         HT  1562  TIP3    H2 20894   0.417000   1.008000
20895         OT  1563  TIP3   OH2 20895  -0.834000  15.999400
20896         HT  1563  TIP3    H1 20896   0.417000   1.008000
20897         HT  1563  TIP3    H2 20897   0.417000   1.008000
20898         OT  1564  TIP3   OH2 20898  -0.834000  15.999400
20899         HT  1564  TIP3    H1 20899   0.417000   1.008000
20900         HT  1564  TIP3    H2 20900   0.417000   1.008000
20901         OT  1565  TIP3   OH2 20901  -0.834000  15.999400
20902         HT  1565  TIP3    H1 20902   0.417000   1.008000
20903         HT  1565  TIP3    H2 20903   0.417000   1.008000
20904         OT  1566  TIP3   OH2 20904  -0.834000  15.999400
20905         HT  1566  TIP3    H1 20905   0.417000   1.008000
20906         HT  1566  TIP3    H2 20906   0.417000   1.008000
20907         OT  1567  TIP3   OH2 20907  -0.834000  15.999400
20908         HT  1567  TIP3    H1 20908   0.417000   1.008000
20909         HT  1567  TIP3    H2 20909   0.417000   1.008000
20910         OT  1568  TIP3   OH2 20910  -0.834000  15.999400
20911         HT  1568  TIP3    H1 20911   0.417000   1.008000
20912         HT  1568  TIP3    H2 20912   0.417000   1.008000
20913         OT  1569  TIP3   OH2 20913  -0.834000  15.999400
20914         HT  1569  TIP3    H1 20914   0.417000   1.008000
20915         HT  1569  TIP3    H2 20915   0.417000   1.008000
20916         OT  1570  TIP3   OH2 20916  -0.834000  15.999400
20917         HT  1570  TIP3    H1 20917   0.417000   1.008000
20918         HT  1570  TIP3    H2 20918   0.417000   1.008000
20919         OT  1571  TIP3   OH2 20919  -0.834000  15.999400
20920         HT  1571  TIP3    H1 20920   0.417000   1.008000
20921         HT  1571  TIP3    H2 20921   0.417000   1.008000
20922         OT  1572  TIP3   OH2 20922  -0.834000  15.999400
20923         HT  1572  TIP3    H1 20923   0.417000   1.008000
20924         HT  1572  TIP3    H2 20924   0.417000   1.008000
20925         OT  1573  TIP3   OH2 20925  -0.834000  15.999400
20926         HT  1573  TIP3    H1 20926   0.417000   1.008000
20927         HT  1573  TIP3    H2 20927   0.417000   1.008000
20928         OT  1574  TIP3   OH2 20928  -0.834000  15.999400
20929         HT  1574  TIP3    H1 20929   0.417000   1.008000
20930         HT  1574  TIP3    H2 20930   0.417000   1.008000
20931         OT  1575  TIP3   OH2 20931  -0.834000  15.999400
20932         HT  1575  TIP3    H1 20932   0.417000   1.008000
20933         HT  1575  TIP3    H2 20933   0.417000   1.008000
20934         OT  1576  TIP3   OH2 20934  -0.834000  15.999400
20935         HT  1576  TIP3    H1 20935   0.417000   1.008000
20936         HT  1576  TIP3    H2 20936   0.417000   1.008000
20937         OT  1577  TIP3   OH2 20937  -0.834000  15.999400
20938         HT  1577  TIP3    H1 20938   0.417000   1.008000
20939         HT  1577  TIP3    H2 20939   0.417000   1.008000
20940         OT  1578  TIP3   OH2 20940  -0.834000  15.999400
20941         HT  1578  TIP3    H1 20941   0.417000   1.008000
20942         HT  1578  TIP3    H2 20942   0.417000   1.008000
20943         OT  1579  TIP3   OH2 20943  -0.834000  15.999400
20944         HT  1579  TIP3    H1 20944   0.417000   1.008000
20945         HT  1579  TIP3    H2 20945   0.417000   1.008000
20946         OT  1580  TIP3   OH2 20946  -0.834000  15.999400
20947         HT  1580  TIP3    H1 20947   0.417000   1.008000
20948         HT  1580  TIP3    H2 20948   0.417000   1.008000
20949         OT  1581  TIP3   OH2 20949  -0.834000  15.999400
20950         HT  1581  TIP3    H1 20950   0.417000   1.008000
20951         HT  1581  TIP3    H2 20951   0.417000   1.008000
20952         OT  1582  TIP3   OH2 20952  -0.834000  15.999400
20953         HT  1582  TIP3    H1 20953   0.417000   1.008000
20954         HT  1582  TIP3    H2 20954   0.417000   1.008000
20955         OT  1583  TIP3   OH2 20955  -0.834000  15.999400
20956         HT  1583  TIP3    H1 20956   0.417000   1.008000
20957         HT  1583  TIP3    H2 20957   0.417000   1.008000
20958         OT  1584  TIP3   OH2 20958  -0.834000  15.999400
20959         HT  1584  TIP3    H1 20959   0.417000   1.008000
20960         HT  1584  TIP3    H2 20960   0.417000   1.008000
20961         OT  1585  TIP3   OH2 20961  -0.834000  15.999400
20962         HT  1585  TIP3    H1 20962   0.417000   1.008000
20963         HT  1585  TIP3    H2 20963   0.417000   1.008000
20964         OT  1586  TIP3   OH2 20964  -0.834000  15.999400
20965         HT  1586  TIP3    H1 20965   0.417000   1.008000
20966         HT  1586  TIP3    H2 20966   0.417000   1.008000
20967         OT  1587  TIP3   OH2 20967  -0.834000  15.999400
20968         HT  1587  TIP3    H1 20968   0.417000   1.008000
20969         HT  1587  TIP3    H2 20969   0.417000   1.008000
20970         OT  1588  TIP3   OH2 20970  -0.834000  15.999400
20971         HT  1588  TIP3    H1 20971   0.417000   1.008000
20972         HT  1588  TIP3    H2 20972   0.417000   1.008000
20973         OT  1589  TIP3   OH2 20973  -0.834000  15.999400
20974         HT  1589  TIP3    H1 20974   0.417000   1.008000
20975         HT  1589  TIP3    H2 20975   0.417000   1.008000
20976         OT  1590  TIP3   OH2 20976  -0.834000  15.999400
20977         HT  1590  TIP3    H1 20977   0.417000   1.008000
20978         HT  1590  TIP3    H2 20978   0.417000   1.008000
20979         OT  1591  TIP3   OH2 20979  -0.834000  15.999400
20980         HT  1591  TIP3    H1 20980   0.417000   1.008000
20981         HT  1591  TIP3    H2 20981   0.417000   1.008000
20982         OT  1592  TIP3   OH2 20982  -0.834000  15.999400
20983         HT  1592  TIP3    H1 20983   0.417000   1.008000
20984         HT  1592  TIP3    H2 20984   0.417000   1.008000
20985         OT  1593  TIP3   OH2 20985  -0.834000  15.999400
20986         HT  1593  TIP3    H1 20986   0.417000   1.008000
20987         HT  1593  TIP3    H2 20987   0.417000   1.008000
20988         OT  1594  TIP3   OH2 20988  -0.834000  15.999400
20989         HT  1594  TIP3    H1 20989   0.417000   1.008000
20990         HT  1594  TIP3    H2 20990   0.417000   1.008000
20991         OT  1595  TIP3   OH2 20991  -0.834000  15.999400
20992         HT  1595  TIP3    H1 20992   0.417000   1.008000
20993         HT  1595  TIP3    H2 20993   0.417000   1.008000
20994         OT  1596  TIP3   OH2 20994  -0.834000  15.999400
20995         HT  1596  TIP3    H1 20995   0.417000   1.008000
20996         HT  1596  TIP3    H2 20996   0.417000   1.008000
20997         OT  1597  TIP3   OH2 20997  -0.834000  15.999400
20998         HT  1597  TIP3    H1 20998   0.417000   1.008000
20999         HT  1597  TIP3    H2 20999   0.417000   1.008000
21000         OT  1598  TIP3   OH2 21000  -0.834000  15.999400
21001         HT  1598  TIP3    H1 21001   0.417000   1.008000
21002         HT  1598  TIP3    H2 21002   0.417000   1.008000
21003         OT  1599  TIP3   OH2 21003  -0.834000  15.999400
21004         HT  1599  TIP3    H1 21004   0.417000   1.008000
21005         HT  1599  TIP3    H2 21005   0.417000   1.008000
21006         OT  1600  TIP3   OH2 21006  -0.834000  15.999400
21007         HT  1600  TIP3    H1 21007   0.417000   1.008000
21008         HT  1600  TIP3    H2 21008   0.417000   1.008000
21009         OT  1601  TIP3   OH2 21009  -0.834000  15.999400
21010         HT  1601  TIP3    H1 21010   0.417000   1.008000
21011         HT  1601  TIP3    H2 21011   0.417000   1.008000
21012         OT  1602  TIP3   OH2 21012  -0.834000  15.999400
21013         HT  1602  TIP3    H1 21013   0.417000   1.008000
21014         HT  1602  TIP3    H2 21014   0.417000   1.008000
21015         OT  1603  TIP3   OH2 21015  -0.834000  15.999400
21016         HT  1603  TIP3    H1 21016   0.417000   1.008000
21017         HT  1603  TIP3    H2 21017   0.417000   1.008000
21018         OT  1604  TIP3   OH2 21018  -0.834000  15.999400
21019         HT  1604  TIP3    H1 21019   0.417000   1.008000
21020         HT  1604  TIP3    H2 21020   0.417000   1.008000
21021         OT  1605  TIP3   OH2 21021  -0.834000  15.999400
21022         HT  1605  TIP3    H1 21022   0.417000   1.008000
21023         HT  1605  TIP3    H2 21023   0.417000   1.008000
21024         OT  1606  TIP3   OH2 21024  -0.834000  15.999400
21025         HT  1606  TIP3    H1 21025   0.417000   1.008000
21026         HT  1606  TIP3    H2 21026   0.417000   1.008000
21027         OT  1607  TIP3   OH2 21027  -0.834000  15.999400
21028         HT  1607  TIP3    H1 21028   0.417000   1.008000
21029         HT  1607  TIP3    H2 21029   0.417000   1.008000
21030         OT  1608  TIP3   OH2 21030  -0.834000  15.999400
21031         HT  1608  TIP3    H1 21031   0.417000   1.008000
21032         HT  1608  TIP3    H2 21032   0.417000   1.008000
21033         OT  1609  TIP3   OH2 21033  -0.834000  15.999400
21034         HT  1609  TIP3    H1 21034   0.417000   1.008000
21035         HT  1609  TIP3    H2 21035   0.417000   1.008000
21036         OT  1610  TIP3   OH2 21036  -0.834000  15.999400
21037         HT  1610  TIP3    H1 21037   0.417000   1.008000
21038         HT  1610  TIP3    H2 21038   0.417000   1.008000
21039         OT  1611  TIP3   OH2 21039  -0.834000  15.999400
21040         HT  1611  TIP3    H1 21040   0.417000   1.008000
21041         HT  1611  TIP3    H2 21041   0.417000   1.008000
21042         OT  1612  TIP3   OH2 21042  -0.834000  15.999400
21043         HT  1612  TIP3    H1 21043   0.417000   1.008000
21044         HT  1612  TIP3    H2 21044   0.417000   1.008000
21045         OT  1613  TIP3   OH2 21045  -0.834000  15.999400
21046         HT  1613  TIP3    H1 21046   0.417000   1.008000
21047         HT  1613  TIP3    H2 21047   0.417000   1.008000
21048         OT  1614  TIP3   OH2 21048  -0.834000  15.999400
21049         HT  1614  TIP3    H1 21049   0.417000   1.008000
21050         HT  1614  TIP3    H2 21050   0.417000   1.008000
21051         OT  1615  TIP3   OH2 21051  -0.834000  15.999400
21052         HT  1615  TIP3    H1 21052   0.417000   1.008000
21053         HT  1615  TIP3    H2 21053   0.417000   1.008000
21054         OT  1616  TIP3   OH2 21054  -0.834000  15.999400
21055         HT  1616  TIP3    H1 21055   0.417000   1.008000
21056         HT  1616  TIP3    H2 21056   0.417000   1.008000
21057         OT  1617  TIP3   OH2 21057  -0.834000  15.999400
21058         HT  1617  TIP3    H1 21058   0.417000   1.008000
21059         HT  1617  TIP3    H2 21059   0.417000   1.008000
21060         OT  1618  TIP3   OH2 21060  -0.834000  15.999400
21061         HT  1618  TIP3    H1 21061   0.417000   1.008000
21062         HT  1618  TIP3    H2 21062   0.417000   1.008000
21063         OT  1619  TIP3   OH2 21063  -0.834000  15.999400
21064         HT  1619  TIP3    H1 21064   0.417000   1.008000
21065         HT  1619  TIP3    H2 21065   0.417000   1.008000
21066         OT  1620  TIP3   OH2 21066  -0.834000  15.999400
21067         HT  1620  TIP3    H1 21067   0.417000   1.008000
21068         HT  1620  TIP3    H2 21068   0.417000   1.008000
21069         OT  1621  TIP3   OH2 21069  -0.834000  15.999400
21070         HT  1621  TIP3    H1 21070   0.417000   1.008000
21071         HT  1621  TIP3    H2 21071   0.417000   1.008000
21072         OT  1622  TIP3   OH2 21072  -0.834000  15.999400
21073         HT  1622  TIP3    H1 21073   0.417000   1.008000
21074         HT  1622  TIP3    H2 21074   0.417000   1.008000
21075         OT  1623  TIP3   OH2 21075  -0.834000  15.999400
21076         HT  1623  TIP3    H1 21076   0.417000   1.008000
21077         HT  1623  TIP3    H2 21077   0.417000   1.008000
21078         OT  1624  TIP3   OH2 21078  -0.834000  15.999400
21079         HT  1624  TIP3    H1 21079   0.417000   1.008000
21080         HT  1624  TIP3    H2 21080   0.417000   1.008000
21081         OT  1625  TIP3   OH2 21081  -0.834000  15.999400
21082         HT  1625  TIP3    H1 21082   0.417000   1.008000
21083         HT  1625  TIP3    H2 21083   0.417000   1.008000
21084         OT  1626  TIP3   OH2 21084  -0.834000  15.999400
21085         HT  1626  TIP3    H1 21085   0.417000   1.008000
21086         HT  1626  TIP3    H2 21086   0.417000   1.008000
21087         OT  1627  TIP3   OH2 21087  -0.834000  15.999400
21088         HT  1627  TIP3    H1 21088   0.417000   1.008000
21089         HT  1627  TIP3    H2 21089   0.417000   1.008000
21090         OT  1628  TIP3   OH2 21090  -0.834000  15.999400
21091         HT  1628  TIP3    H1 21091   0.417000   1.008000
21092         HT  1628  TIP3    H2 21092   0.417000   1.008000
21093         OT  1629  TIP3   OH2 21093  -0.834000  15.999400
21094         HT  1629  TIP3    H1 21094   0.417000   1.008000
21095         HT  1629  TIP3    H2 21095   0.417000   1.008000
21096         OT  1630  TIP3   OH2 21096  -0.834000  15.999400
21097         HT  1630  TIP3    H1 21097   0.417000   1.008000
21098         HT  1630  TIP3    H2 21098   0.417000   1.008000
21099         OT  1631  TIP3   OH2 21099  -0.834000  15.999400
21100         HT  1631  TIP3    H1 21100   0.417000   1.008000
21101         HT  1631  TIP3    H2 21101   0.417000   1.008000
21102         OT  1632  TIP3   OH2 21102  -0.834000  15.999400
21103         HT  1632  TIP3    H1 21103   0.417000   1.008000
21104         HT  1632  TIP3    H2 21104   0.417000   1.008000
21105         OT  1633  TIP3   OH2 21105  -0.834000  15.999400
21106         HT  1633  TIP3    H1 21106   0.417000   1.008000
21107         HT  1633  TIP3    H2 21107   0.417000   1.008000
21108         OT  1634  TIP3   OH2 21108  -0.834000  15.999400
21109         HT  1634  TIP3    H1 21109   0.417000   1.008000
21110         HT  1634  TIP3    H2 21110   0.417000   1.008000
21111         OT  1635  TIP3   OH2 21111  -0.834000  15.999400
21112         HT  1635  TIP3    H1 21112   0.417000   1.008000
21113         HT  1635  TIP3    H2 21113   0.417000   1.008000
21114         OT  1636  TIP3   OH2 21114  -0.834000  15.999400
21115         HT  1636  TIP3    H1 21115   0.417000   1.008000
21116         HT  1636  TIP3    H2 21116   0.417000   1.008000
21117         OT  1637  TIP3   OH2 21117  -0.834000  15.999400
21118         HT  1637  TIP3    H1 21118   0.417000   1.008000
21119         HT  1637  TIP3    H2 21119   0.417000   1.008000
21120         OT  1638  TIP3   OH2 21120  -0.834000  15.999400
21121         HT  1638  TIP3    H1 21121   0.417000   1.008000
21122         HT  1638  TIP3    H2 21122   0.417000   1.008000
21123         OT  1639  TIP3   OH2 21123  -0.834000  15.999400
21124         HT  1639  TIP3    H1 21124   0.417000   1.008000
21125         HT  1639  TIP3    H2 21125   0.417000   1.008000
21126         OT  1640  TIP3   OH2 21126  -0.834000  15.999400
21127         HT  1640  TIP3    H1 21127   0.417000   1.008000
21128         HT  1640  TIP3    H2 21128   0.417000   1.008000
21129         OT  1641  TIP3   OH2 21129  -0.834000  15.999400
21130         HT  1641  TIP3    H1 21130   0.417000   1.008000
21131         HT  1641  TIP3    H2 21131   0.417000   1.008000
21132         OT  1642  TIP3   OH2 21132  -0.834000  15.999400
21133         HT  1642  TIP3    H1 21133   0.417000   1.008000
21134         HT  1642  TIP3    H2 21134   0.417000   1.008000
21135         OT  1643  TIP3   OH2 21135  -0.834000  15.999400
21136         HT  1643  TIP3    H1 21136   0.417000   1.008000
21137         HT  1643  TIP3    H2 21137   0.417000   1.008000
21138         OT  1644  TIP3   OH2 21138  -0.834000  15.999400
21139         HT  1644  TIP3    H1 21139   0.417000   1.008000
21140         HT  1644  TIP3    H2 21140   0.417000   1.008000
21141         OT  1645  TIP3   OH2 21141  -0.834000  15.999400
21142         HT  1645  TIP3    H1 21142   0.417000   1.008000
21143         HT  1645  TIP3    H2 21143   0.417000   1.008000
21144         OT  1646  TIP3   OH2 21144  -0.834000  15.999400
21145         HT  1646  TIP3    H1 21145   0.417000   1.008000
21146         HT  1646  TIP3    H2 21146   0.417000   1.008000
21147         OT  1647  TIP3   OH2 21147  -0.834000  15.999400
21148         HT  1647  TIP3    H1 21148   0.417000   1.008000
21149         HT  1647  TIP3    H2 21149   0.417000   1.008000
21150         OT  1648  TIP3   OH2 21150  -0.834000  15.999400
21151         HT  1648  TIP3    H1 21151   0.417000   1.008000
21152         HT  1648  TIP3    H2 21152   0.417000   1.008000
21153         OT  1649  TIP3   OH2 21153  -0.834000  15.999400
21154         HT  1649  TIP3    H1 21154   0.417000   1.008000
21155         HT  1649  TIP3    H2 21155   0.417000   1.008000
21156         OT  1650  TIP3   OH2 21156  -0.834000  15.999400
21157         HT  1650  TIP3    H1 21157   0.417000   1.008000
21158         HT  1650  TIP3    H2 21158   0.417000   1.008000
21159         OT  1651  TIP3   OH2 21159  -0.834000  15.999400
21160         HT  1651  TIP3    H1 21160   0.417000   1.008000
21161         HT  1651  TIP3    H2 21161   0.417000   1.008000
21162         OT  1652  TIP3   OH2 21162  -0.834000  15.999400
21163         HT  1652  TIP3    H1 21163   0.417000   1.008000
21164         HT  1652  TIP3    H2 21164   0.417000   1.008000
21165         OT  1653  TIP3   OH2 21165  -0.834000  15.999400
21166         HT  1653  TIP3    H1 21166   0.417000   1.008000
21167         HT  1653  TIP3    H2 21167   0.417000   1.008000
21168         OT  1654  TIP3   OH2 21168  -0.834000  15.999400
21169         HT  1654  TIP3    H1 21169   0.417000   1.008000
21170         HT  1654  TIP3    H2 21170   0.417000   1.008000
21171         OT  1655  TIP3   OH2 21171  -0.834000  15.999400
21172         HT  1655  TIP3    H1 21172   0.417000   1.008000
21173         HT  1655  TIP3    H2 21173   0.417000   1.008000
21174         OT  1656  TIP3   OH2 21174  -0.834000  15.999400
21175         HT  1656  TIP3    H1 21175   0.417000   1.008000
21176         HT  1656  TIP3    H2 21176   0.417000   1.008000
21177         OT  1657  TIP3   OH2 21177  -0.834000  15.999400
21178         HT  1657  TIP3    H1 21178   0.417000   1.008000
21179         HT  1657  TIP3    H2 21179   0.417000   1.008000
21180         OT  1658  TIP3   OH2 21180  -0.834000  15.999400
21181         HT  1658  TIP3    H1 21181   0.417000   1.008000
21182         HT  1658  TIP3    H2 21182   0.417000   1.008000
21183         OT  1659  TIP3   OH2 21183  -0.834000  15.999400
21184         HT  1659  TIP3    H1 21184   0.417000   1.008000
21185         HT  1659  TIP3    H2 21185   0.417000   1.008000
21186         OT  1660  TIP3   OH2 21186  -0.834000  15.999400
21187         HT  1660  TIP3    H1 21187   0.417000   1.008000
21188         HT  1660  TIP3    H2 21188   0.417000   1.008000
21189         OT  1661  TIP3   OH2 21189  -0.834000  15.999400
21190         HT  1661  TIP3    H1 21190   0.417000   1.008000
21191         HT  1661  TIP3    H2 21191   0.417000   1.008000
21192         OT  1662  TIP3   OH2 21192  -0.834000  15.999400
21193         HT  1662  TIP3    H1 21193   0.417000   1.008000
21194         HT  1662  TIP3    H2 21194   0.417000   1.008000
21195         OT  1663  TIP3   OH2 21195  -0.834000  15.999400
21196         HT  1663  TIP3    H1 21196   0.417000   1.008000
21197         HT  1663  TIP3    H2 21197   0.417000   1.008000
21198         OT  1664  TIP3   OH2 21198  -0.834000  15.999400
21199         HT  1664  TIP3    H1 21199   0.417000   1.008000
21200         HT  1664  TIP3    H2 21200   0.417000   1.008000
21201         OT  1665  TIP3   OH2 21201  -0.834000  15.999400
21202         HT  1665  TIP3    H1 21202   0.417000   1.008000
21203         HT  1665  TIP3    H2 21203   0.417000   1.008000
21204         OT  1666  TIP3   OH2 21204  -0.834000  15.999400
21205         HT  1666  TIP3    H1 21205   0.417000   1.008000
21206         HT  1666  TIP3    H2 21206   0.417000   1.008000
21207         OT  1667  TIP3   OH2 21207  -0.834000  15.999400
21208         HT  1667  TIP3    H1 21208   0.417000   1.008000
21209         HT  1667  TIP3    H2 21209   0.417000   1.008000
21210         OT  1668  TIP3   OH2 21210  -0.834000  15.999400
21211         HT  1668  TIP3    H1 21211   0.417000   1.008000
21212         HT  1668  TIP3    H2 21212   0.417000   1.008000
21213         OT  1669  TIP3   OH2 21213  -0.834000  15.999400
21214         HT  1669  TIP3    H1 21214   0.417000   1.008000
21215         HT  1669  TIP3    H2 21215   0.417000   1.008000
21216         OT  1670  TIP3   OH2 21216  -0.834000  15.999400
21217         HT  1670  TIP3    H1 21217   0.417000   1.008000
21218         HT  1670  TIP3    H2 21218   0.417000   1.008000
21219         OT  1671  TIP3   OH2 21219  -0.834000  15.999400
21220         HT  1671  TIP3    H1 21220   0.417000   1.008000
21221         HT  1671  TIP3    H2 21221   0.417000   1.008000
21222         OT  1672  TIP3   OH2 21222  -0.834000  15.999400
21223         HT  1672  TIP3    H1 21223   0.417000   1.008000
21224         HT  1672  TIP3    H2 21224   0.417000   1.008000
21225         OT  1673  TIP3   OH2 21225  -0.834000  15.999400
21226         HT  1673  TIP3    H1 21226   0.417000   1.008000
21227         HT  1673  TIP3    H2 21227   0.417000   1.008000
21228         OT  1674  TIP3   OH2 21228  -0.834000  15.999400
21229         HT  1674  TIP3    H1 21229   0.417000   1.008000
21230         HT  1674  TIP3    H2 21230   0.417000   1.008000
21231         OT  1675  TIP3   OH2 21231  -0.834000  15.999400
21232         HT  1675  TIP3    H1 21232   0.417000   1.008000
21233         HT  1675  TIP3    H2 21233   0.417000   1.008000
21234         OT  1676  TIP3   OH2 21234  -0.834000  15.999400
21235         HT  1676  TIP3    H1 21235   0.417000   1.008000
21236         HT  1676  TIP3    H2 21236   0.417000   1.008000
21237         OT  1677  TIP3   OH2 21237  -0.834000  15.999400
21238         HT  1677  TIP3    H1 21238   0.417000   1.008000
21239         HT  1677  TIP3    H2 21239   0.417000   1.008000
21240         OT  1678  TIP3   OH2 21240  -0.834000  15.999400
21241         HT  1678  TIP3    H1 21241   0.417000   1.008000
21242         HT  1678  TIP3    H2 21242   0.417000   1.008000
21243         OT  1679  TIP3   OH2 21243  -0.834000  15.999400
21244         HT  1679  TIP3    H1 21244   0.417000   1.008000
21245         HT  1679  TIP3    H2 21245   0.417000   1.008000
21246         OT  1680  TIP3   OH2 21246  -0.834000  15.999400
21247         HT  1680  TIP3    H1 21247   0.417000   1.008000
21248         HT  1680  TIP3    H2 21248   0.417000   1.008000
21249         OT  1681  TIP3   OH2 21249  -0.834000  15.999400
21250         HT  1681  TIP3    H1 21250   0.417000   1.008000
21251         HT  1681  TIP3    H2 21251   0.417000   1.008000
21252         OT  1682  TIP3   OH2 21252  -0.834000  15.999400
21253         HT  1682  TIP3    H1 21253   0.417000   1.008000
21254         HT  1682  TIP3    H2 21254   0.417000   1.008000
21255         OT  1683  TIP3   OH2 21255  -0.834000  15.999400
21256         HT  1683  TIP3    H1 21256   0.417000   1.008000
21257         HT  1683  TIP3    H2 21257   0.417000   1.008000
21258         OT  1684  TIP3   OH2 21258  -0.834000  15.999400
21259         HT  1684  TIP3    H1 21259   0.417000   1.008000
21260         HT  1684  TIP3    H2 21260   0.417000   1.008000
21261         OT  1685  TIP3   OH2 21261  -0.834000  15.999400
21262         HT  1685  TIP3    H1 21262   0.417000   1.008000
21263         HT  1685  TIP3    H2 21263   0.417000   1.008000
21264         OT  1686  TIP3   OH2 21264  -0.834000  15.999400
21265         HT  1686  TIP3    H1 21265   0.417000   1.008000
21266         HT  1686  TIP3    H2 21266   0.417000   1.008000
21267         OT  1687  TIP3   OH2 21267  -0.834000  15.999400
21268         HT  1687  TIP3    H1 21268   0.417000   1.008000
21269         HT  1687  TIP3    H2 21269   0.417000   1.008000
21270         OT  1688  TIP3   OH2 21270  -0.834000  15.999400
21271         HT  1688  TIP3    H1 21271   0.417000   1.008000
21272         HT  1688  TIP3    H2 21272   0.417000   1.008000
21273         OT  1689  TIP3   OH2 21273  -0.834000  15.999400
21274         HT  1689  TIP3    H1 21274   0.417000   1.008000
21275         HT  1689  TIP3    H2 21275   0.417000   1.008000
21276         OT  1690  TIP3   OH2 21276  -0.834000  15.999400
21277         HT  1690  TIP3    H1 21277   0.417000   1.008000
21278         HT  1690  TIP3    H2 21278   0.417000   1.008000
21279         OT  1691  TIP3   OH2 21279  -0.834000  15.999400
21280         HT  1691  TIP3    H1 21280   0.417000   1.008000
21281         HT  1691  TIP3    H2 21281   0.417000   1.008000
21282         OT  1692  TIP3   OH2 21282  -0.834000  15.999400
21283         HT  1692  TIP3    H1 21283   0.417000   1.008000
21284         HT  1692  TIP3    H2 21284   0.417000   1.008000
21285         OT  1693  TIP3   OH2 21285  -0.834000  15.999400
21286         HT  1693  TIP3    H1 21286   0.417000   1.008000
21287         HT  1693  TIP3    H2 21287   0.417000   1.008000
21288         OT  1694  TIP3   OH2 21288  -0.834000  15.999400
21289         HT  1694  TIP3    H1 21289   0.417000   1.008000
21290         HT  1694  TIP3    H2 21290   0.417000   1.008000
21291         OT  1695  TIP3   OH2 21291  -0.834000  15.999400
21292         HT  1695  TIP3    H1 21292   0.417000   1.008000
21293         HT  1695  TIP3    H2 21293   0.417000   1.008000
21294         OT  1696  TIP3   OH2 21294  -0.834000  15.999400
21295         HT  1696  TIP3    H1 21295   0.417000   1.008000
21296         HT  1696  TIP3    H2 21296   0.417000   1.008000
21297         OT  1697  TIP3   OH2 21297  -0.834000  15.999400
21298         HT  1697  TIP3    H1 21298   0.417000   1.008000
21299         HT  1697  TIP3    H2 21299   0.417000   1.008000
21300         OT  1698  TIP3   OH2 21300  -0.834000  15.999400
21301         HT  1698  TIP3    H1 21301   0.417000   1.008000
21302         HT  1698  TIP3    H2 21302   0.417000   1.008000
21303         OT  1699  TIP3   OH2 21303  -0.834000  15.999400
21304         HT  1699  TIP3    H1 21304   0.417000   1.008000
21305         HT  1699  TIP3    H2 21305   0.417000   1.008000
21306         OT  1700  TIP3   OH2 21306  -0.834000  15.999400
21307         HT  1700  TIP3    H1 21307   0.417000   1.008000
21308         HT  1700  TIP3    H2 21308   0.417000   1.008000
21309         OT  1701  TIP3   OH2 21309  -0.834000  15.999400
21310         HT  1701  TIP3    H1 21310   0.417000   1.008000
21311         HT  1701  TIP3    H2 21311   0.417000   1.008000
21312         OT  1702  TIP3   OH2 21312  -0.834000  15.999400
21313         HT  1702  TIP3    H1 21313   0.417000   1.008000
21314         HT  1702  TIP3    H2 21314   0.417000   1.008000
21315         OT  1703  TIP3   OH2 21315  -0.834000  15.999400
21316         HT  1703  TIP3    H1 21316   0.417000   1.008000
21317         HT  1703  TIP3    H2 21317   0.417000   1.008000
21318         OT  1704  TIP3   OH2 21318  -0.834000  15.999400
21319         HT  1704  TIP3    H1 21319   0.417000   1.008000
21320         HT  1704  TIP3    H2 21320   0.417000   1.008000
21321         OT  1705  TIP3   OH2 21321  -0.834000  15.999400
21322         HT  1705  TIP3    H1 21322   0.417000   1.008000
21323         HT  1705  TIP3    H2 21323   0.417000   1.008000
21324         OT  1706  TIP3   OH2 21324  -0.834000  15.999400
21325         HT  1706  TIP3    H1 21325   0.417000   1.008000
21326         HT  1706  TIP3    H2 21326   0.417000   1.008000
21327         OT  1707  TIP3   OH2 21327  -0.834000  15.999400
21328         HT  1707  TIP3    H1 21328   0.417000   1.008000
21329         HT  1707  TIP3    H2 21329   0.417000   1.008000
21330         OT  1708  TIP3   OH2 21330  -0.834000  15.999400
21331         HT  1708  TIP3    H1 21331   0.417000   1.008000
21332         HT  1708  TIP3    H2 21332   0.417000   1.008000
21333         OT  1709  TIP3   OH2 21333  -0.834000  15.999400
21334         HT  1709  TIP3    H1 21334   0.417000   1.008000
21335         HT  1709  TIP3    H2 21335   0.417000   1.008000
21336         OT  1710  TIP3   OH2 21336  -0.834000  15.999400
21337         HT  1710  TIP3    H1 21337   0.417000   1.008000
21338         HT  1710  TIP3    H2 21338   0.417000   1.008000
21339         OT  1711  TIP3   OH2 21339  -0.834000  15.999400
21340         HT  1711  TIP3    H1 21340   0.417000   1.008000
21341         HT  1711  TIP3    H2 21341   0.417000   1.008000
21342         OT  1712  TIP3   OH2 21342  -0.834000  15.999400
21343         HT  1712  TIP3    H1 21343   0.417000   1.008000
21344         HT  1712  TIP3    H2 21344   0.417000   1.008000
21345         OT  1713  TIP3   OH2 21345  -0.834000  15.999400
21346         HT  1713  TIP3    H1 21346   0.417000   1.008000
21347         HT  1713  TIP3    H2 21347   0.417000   1.008000
21348         OT  1714  TIP3   OH2 21348  -0.834000  15.999400
21349         HT  1714  TIP3    H1 21349   0.417000   1.008000
21350         HT  1714  TIP3    H2 21350   0.417000   1.008000
21351         OT  1715  TIP3   OH2 21351  -0.834000  15.999400
21352         HT  1715  TIP3    H1 21352   0.417000   1.008000
21353         HT  1715  TIP3    H2 21353   0.417000   1.008000
21354         OT  1716  TIP3   OH2 21354  -0.834000  15.999400
21355         HT  1716  TIP3    H1 21355   0.417000   1.008000
21356         HT  1716  TIP3    H2 21356   0.417000   1.008000
21357         OT  1717  TIP3   OH2 21357  -0.834000  15.999400
21358         HT  1717  TIP3    H1 21358   0.417000   1.008000
21359         HT  1717  TIP3    H2 21359   0.417000   1.008000
21360         OT  1718  TIP3   OH2 21360  -0.834000  15.999400
21361         HT  1718  TIP3    H1 21361   0.417000   1.008000
21362         HT  1718  TIP3    H2 21362   0.417000   1.008000
21363         OT  1719  TIP3   OH2 21363  -0.834000  15.999400
21364         HT  1719  TIP3    H1 21364   0.417000   1.008000
21365         HT  1719  TIP3    H2 21365   0.417000   1.008000
21366         OT  1720  TIP3   OH2 21366  -0.834000  15.999400
21367         HT  1720  TIP3    H1 21367   0.417000   1.008000
21368         HT  1720  TIP3    H2 21368   0.417000   1.008000
21369         OT  1721  TIP3   OH2 21369  -0.834000  15.999400
21370         HT  1721  TIP3    H1 21370   0.417000   1.008000
21371         HT  1721  TIP3    H2 21371   0.417000   1.008000
21372         OT  1722  TIP3   OH2 21372  -0.834000  15.999400
21373         HT  1722  TIP3    H1 21373   0.417000   1.008000
21374         HT  1722  TIP3    H2 21374   0.417000   1.008000
21375         OT  1723  TIP3   OH2 21375  -0.834000  15.999400
21376         HT  1723  TIP3    H1 21376   0.417000   1.008000
21377         HT  1723  TIP3    H2 21377   0.417000   1.008000
21378         OT  1724  TIP3   OH2 21378  -0.834000  15.999400
21379         HT  1724  TIP3    H1 21379   0.417000   1.008000
21380         HT  1724  TIP3    H2 21380   0.417000   1.008000
21381         OT  1725  TIP3   OH2 21381  -0.834000  15.999400
21382         HT  1725  TIP3    H1 21382   0.417000   1.008000
21383         HT  1725  TIP3    H2 21383   0.417000   1.008000
21384         OT  1726  TIP3   OH2 21384  -0.834000  15.999400
21385         HT  1726  TIP3    H1 21385   0.417000   1.008000
21386         HT  1726  TIP3    H2 21386   0.417000   1.008000
21387         OT  1727  TIP3   OH2 21387  -0.834000  15.999400
21388         HT  1727  TIP3    H1 21388   0.417000   1.008000
21389         HT  1727  TIP3    H2 21389   0.417000   1.008000
21390         OT  1728  TIP3   OH2 21390  -0.834000  15.999400
21391         HT  1728  TIP3    H1 21391   0.417000   1.008000
21392         HT  1728  TIP3    H2 21392   0.417000   1.008000
21393         OT  1729  TIP3   OH2 21393  -0.834000  15.999400
21394         HT  1729  TIP3    H1 21394   0.417000   1.008000
21395         HT  1729  TIP3    H2 21395   0.417000   1.008000
21396         OT  1730  TIP3   OH2 21396  -0.834000  15.999400
21397         HT  1730  TIP3    H1 21397   0.417000   1.008000
21398         HT  1730  TIP3    H2 21398   0.417000   1.008000
21399         OT  1731  TIP3   OH2 21399  -0.834000  15.999400
21400         HT  1731  TIP3    H1 21400   0.417000   1.008000
21401         HT  1731  TIP3    H2 21401   0.417000   1.008000
21402         OT  1732  TIP3   OH2 21402  -0.834000  15.999400
21403         HT  1732  TIP3    H1 21403   0.417000   1.008000
21404         HT  1732  TIP3    H2 21404   0.417000   1.008000
21405         OT  1733  TIP3   OH2 21405  -0.834000  15.999400
21406         HT  1733  TIP3    H1 21406   0.417000   1.008000
21407         HT  1733  TIP3    H2 21407   0.417000   1.008000
21408         OT  1734  TIP3   OH2 21408  -0.834000  15.999400
21409         HT  1734  TIP3    H1 21409   0.417000   1.008000
21410         HT  1734  TIP3    H2 21410   0.417000   1.008000
21411         OT  1735  TIP3   OH2 21411  -0.834000  15.999400
21412         HT  1735  TIP3    H1 21412   0.417000   1.008000
21413         HT  1735  TIP3    H2 21413   0.417000   1.008000
21414         OT  1736  TIP3   OH2 21414  -0.834000  15.999400
21415         HT  1736  TIP3    H1 21415   0.417000   1.008000
21416         HT  1736  TIP3    H2 21416   0.417000   1.008000
21417         OT  1737  TIP3   OH2 21417  -0.834000  15.999400
21418         HT  1737  TIP3    H1 21418   0.417000   1.008000
21419         HT  1737  TIP3    H2 21419   0.417000   1.008000
21420         OT  1738  TIP3   OH2 21420  -0.834000  15.999400
21421         HT  1738  TIP3    H1 21421   0.417000   1.008000
21422         HT  1738  TIP3    H2 21422   0.417000   1.008000
21423         OT  1739  TIP3   OH2 21423  -0.834000  15.999400
21424         HT  1739  TIP3    H1 21424   0.417000   1.008000
21425         HT  1739  TIP3    H2 21425   0.417000   1.008000
21426         OT  1740  TIP3   OH2 21426  -0.834000  15.999400
21427         HT  1740  TIP3    H1 21427   0.417000   1.008000
21428         HT  1740  TIP3    H2 21428   0.417000   1.008000
21429         OT  1741  TIP3   OH2 21429  -0.834000  15.999400
21430         HT  1741  TIP3    H1 21430   0.417000   1.008000
21431         HT  1741  TIP3    H2 21431   0.417000   1.008000
21432         OT  1742  TIP3   OH2 21432  -0.834000  15.999400
21433         HT  1742  TIP3    H1 21433   0.417000   1.008000
21434         HT  1742  TIP3    H2 21434   0.417000   1.008000
21435         OT  1743  TIP3   OH2 21435  -0.834000  15.999400
21436         HT  1743  TIP3    H1 21436   0.417000   1.008000
21437         HT  1743  TIP3    H2 21437   0.417000   1.008000
21438         OT  1744  TIP3   OH2 21438  -0.834000  15.999400
21439         HT  1744  TIP3    H1 21439   0.417000   1.008000
21440         HT  1744  TIP3    H2 21440   0.417000   1.008000
21441         OT  1745  TIP3   OH2 21441  -0.834000  15.999400
21442         HT  1745  TIP3    H1 21442   0.417000   1.008000
21443         HT  1745  TIP3    H2 21443   0.417000   1.008000
21444         OT  1746  TIP3   OH2 21444  -0.834000  15.999400
21445         HT  1746  TIP3    H1 21445   0.417000   1.008000
21446         HT  1746  TIP3    H2 21446   0.417000   1.008000
21447         OT  1747  TIP3   OH2 21447  -0.834000  15.999400
21448         HT  1747  TIP3    H1 21448   0.417000   1.008000
21449         HT  1747  TIP3    H2 21449   0.417000   1.008000
21450         OT  1748  TIP3   OH2 21450  -0.834000  15.999400
21451         HT  1748  TIP3    H1 21451   0.417000   1.008000
21452         HT  1748  TIP3    H2 21452   0.417000   1.008000
21453         OT  1749  TIP3   OH2 21453  -0.834000  15.999400
21454         HT  1749  TIP3    H1 21454   0.417000   1.008000
21455         HT  1749  TIP3    H2 21455   0.417000   1.008000
21456         OT  1750  TIP3   OH2 21456  -0.834000  15.999400
21457         HT  1750  TIP3    H1 21457   0.417000   1.008000
21458         HT  1750  TIP3    H2 21458   0.417000   1.008000
21459         OT  1751  TIP3   OH2 21459  -0.834000  15.999400
21460         HT  1751  TIP3    H1 21460   0.417000   1.008000
21461         HT  1751  TIP3    H2 21461   0.417000   1.008000
21462         OT  1752  TIP3   OH2 21462  -0.834000  15.999400
21463         HT  1752  TIP3    H1 21463   0.417000   1.008000
21464         HT  1752  TIP3    H2 21464   0.417000   1.008000
21465         OT  1753  TIP3   OH2 21465  -0.834000  15.999400
21466         HT  1753  TIP3    H1 21466   0.417000   1.008000
21467         HT  1753  TIP3    H2 21467   0.417000   1.008000
21468         OT  1754  TIP3   OH2 21468  -0.834000  15.999400
21469         HT  1754  TIP3    H1 21469   0.417000   1.008000
21470         HT  1754  TIP3    H2 21470   0.417000   1.008000
21471         OT  1755  TIP3   OH2 21471  -0.834000  15.999400
21472         HT  1755  TIP3    H1 21472   0.417000   1.008000
21473         HT  1755  TIP3    H2 21473   0.417000   1.008000
21474         OT  1756  TIP3   OH2 21474  -0.834000  15.999400
21475         HT  1756  TIP3    H1 21475   0.417000   1.008000
21476         HT  1756  TIP3    H2 21476   0.417000   1.008000
21477         OT  1757  TIP3   OH2 21477  -0.834000  15.999400
21478         HT  1757  TIP3    H1 21478   0.417000   1.008000
21479         HT  1757  TIP3    H2 21479   0.417000   1.008000
21480         OT  1758  TIP3   OH2 21480  -0.834000  15.999400
21481         HT  1758  TIP3    H1 21481   0.417000   1.008000
21482         HT  1758  TIP3    H2 21482   0.417000   1.008000
21483         OT  1759  TIP3   OH2 21483  -0.834000  15.999400
21484         HT  1759  TIP3    H1 21484   0.417000   1.008000
21485         HT  1759  TIP3    H2 21485   0.417000   1.008000
21486         OT  1760  TIP3   OH2 21486  -0.834000  15.999400
21487         HT  1760  TIP3    H1 21487   0.417000   1.008000
21488         HT  1760  TIP3    H2 21488   0.417000   1.008000
21489         OT  1761  TIP3   OH2 21489  -0.834000  15.999400
21490         HT  1761  TIP3    H1 21490   0.417000   1.008000
21491         HT  1761  TIP3    H2 21491   0.417000   1.008000
21492         OT  1762  TIP3   OH2 21492  -0.834000  15.999400
21493         HT  1762  TIP3    H1 21493   0.417000   1.008000
21494         HT  1762  TIP3    H2 21494   0.417000   1.008000
21495         OT  1763  TIP3   OH2 21495  -0.834000  15.999400
21496         HT  1763  TIP3    H1 21496   0.417000   1.008000
21497         HT  1763  TIP3    H2 21497   0.417000   1.008000
21498         OT  1764  TIP3   OH2 21498  -0.834000  15.999400
21499         HT  1764  TIP3    H1 21499   0.417000   1.008000
21500         HT  1764  TIP3    H2 21500   0.417000   1.008000
21501         OT  1765  TIP3   OH2 21501  -0.834000  15.999400
21502         HT  1765  TIP3    H1 21502   0.417000   1.008000
21503         HT  1765  TIP3    H2 21503   0.417000   1.008000
21504         OT  1766  TIP3   OH2 21504  -0.834000  15.999400
21505         HT  1766  TIP3    H1 21505   0.417000   1.008000
21506         HT  1766  TIP3    H2 21506   0.417000   1.008000
21507         OT  1767  TIP3   OH2 21507  -0.834000  15.999400
21508         HT  1767  TIP3    H1 21508   0.417000   1.008000
21509         HT  1767  TIP3    H2 21509   0.417000   1.008000
21510         OT  1768  TIP3   OH2 21510  -0.834000  15.999400
21511         HT  1768  TIP3    H1 21511   0.417000   1.008000
21512         HT  1768  TIP3    H2 21512   0.417000   1.008000
21513         OT  1769  TIP3   OH2 21513  -0.834000  15.999400
21514         HT  1769  TIP3    H1 21514   0.417000   1.008000
21515         HT  1769  TIP3    H2 21515   0.417000   1.008000
21516         OT  1770  TIP3   OH2 21516  -0.834000  15.999400
21517         HT  1770  TIP3    H1 21517   0.417000   1.008000
21518         HT  1770  TIP3    H2 21518   0.417000   1.008000
21519         OT  1771  TIP3   OH2 21519  -0.834000  15.999400
21520         HT  1771  TIP3    H1 21520   0.417000   1.008000
21521         HT  1771  TIP3    H2 21521   0.417000   1.008000
21522         OT  1772  TIP3   OH2 21522  -0.834000  15.999400
21523         HT  1772  TIP3    H1 21523   0.417000   1.008000
21524         HT  1772  TIP3    H2 21524   0.417000   1.008000
21525         OT  1773  TIP3   OH2 21525  -0.834000  15.999400
21526         HT  1773  TIP3    H1 21526   0.417000   1.008000
21527         HT  1773  TIP3    H2 21527   0.417000   1.008000
21528         OT  1774  TIP3   OH2 21528  -0.834000  15.999400
21529         HT  1774  TIP3    H1 21529   0.417000   1.008000
21530         HT  1774  TIP3    H2 21530   0.417000   1.008000
21531         OT  1775  TIP3   OH2 21531  -0.834000  15.999400
21532         HT  1775  TIP3    H1 21532   0.417000   1.008000
21533         HT  1775  TIP3    H2 21533   0.417000   1.008000
21534         OT  1776  TIP3   OH2 21534  -0.834000  15.999400
21535         HT  1776  TIP3    H1 21535   0.417000   1.008000
21536         HT  1776  TIP3    H2 21536   0.417000   1.008000
21537         OT  1777  TIP3   OH2 21537  -0.834000  15.999400
21538         HT  1777  TIP3    H1 21538   0.417000   1.008000
21539         HT  1777  TIP3    H2 21539   0.417000   1.008000
21540         OT  1778  TIP3   OH2 21540  -0.834000  15.999400
21541         HT  1778  TIP3    H1 21541   0.417000   1.008000
21542         HT  1778  TIP3    H2 21542   0.417000   1.008000
21543         OT  1779  TIP3   OH2 21543  -0.834000  15.999400
21544         HT  1779  TIP3    H1 21544   0.417000   1.008000
21545         HT  1779  TIP3    H2 21545   0.417000   1.008000
21546         OT  1780  TIP3   OH2 21546  -0.834000  15.999400
21547         HT  1780  TIP3    H1 21547   0.417000   1.008000
21548         HT  1780  TIP3    H2 21548   0.417000   1.008000
21549         OT  1781  TIP3   OH2 21549  -0.834000  15.999400
21550         HT  1781  TIP3    H1 21550   0.417000   1.008000
21551         HT  1781  TIP3    H2 21551   0.417000   1.008000
21552         OT  1782  TIP3   OH2 21552  -0.834000  15.999400
21553         HT  1782  TIP3    H1 21553   0.417000   1.008000
21554         HT  1782  TIP3    H2 21554   0.417000   1.008000
21555         OT  1783  TIP3   OH2 21555  -0.834000  15.999400
21556         HT  1783  TIP3    H1 21556   0.417000   1.008000
21557         HT  1783  TIP3    H2 21557   0.417000   1.008000
21558         OT  1784  TIP3   OH2 21558  -0.834000  15.999400
21559         HT  1784  TIP3    H1 21559   0.417000   1.008000
21560         HT  1784  TIP3    H2 21560   0.417000   1.008000
21561         OT  1785  TIP3   OH2 21561  -0.834000  15.999400
21562         HT  1785  TIP3    H1 21562   0.417000   1.008000
21563         HT  1785  TIP3    H2 21563   0.417000   1.008000
21564         OT  1786  TIP3   OH2 21564  -0.834000  15.999400
21565         HT  1786  TIP3    H1 21565   0.417000   1.008000
21566         HT  1786  TIP3    H2 21566   0.417000   1.008000
21567         OT  1787  TIP3   OH2 21567  -0.834000  15.999400
21568         HT  1787  TIP3    H1 21568   0.417000   1.008000
21569         HT  1787  TIP3    H2 21569   0.417000   1.008000
21570         OT  1788  TIP3   OH2 21570  -0.834000  15.999400
21571         HT  1788  TIP3    H1 21571   0.417000   1.008000
21572         HT  1788  TIP3    H2 21572   0.417000   1.008000
21573         OT  1789  TIP3   OH2 21573  -0.834000  15.999400
21574         HT  1789  TIP3    H1 21574   0.417000   1.008000
21575         HT  1789  TIP3    H2 21575   0.417000   1.008000
21576         OT  1790  TIP3   OH2 21576  -0.834000  15.999400
21577         HT  1790  TIP3    H1 21577   0.417000   1.008000
21578         HT  1790  TIP3    H2 21578   0.417000   1.008000
21579         OT  1791  TIP3   OH2 21579  -0.834000  15.999400
21580         HT  1791  TIP3    H1 21580   0.417000   1.008000
21581         HT  1791  TIP3    H2 21581   0.417000   1.008000
21582         OT  1792  TIP3   OH2 21582  -0.834000  15.999400
21583         HT  1792  TIP3    H1 21583   0.417000   1.008000
21584         HT  1792  TIP3    H2 21584   0.417000   1.008000
21585         OT  1793  TIP3   OH2 21585  -0.834000  15.999400
21586         HT  1793  TIP3    H1 21586   0.417000   1.008000
21587         HT  1793  TIP3    H2 21587   0.417000   1.008000
21588         OT  1794  TIP3   OH2 21588  -0.834000  15.999400
21589         HT  1794  TIP3    H1 21589   0.417000   1.008000
21590         HT  1794  TIP3    H2 21590   0.417000   1.008000
21591         OT  1795  TIP3   OH2 21591  -0.834000  15.999400
21592         HT  1795  TIP3    H1 21592   0.417000   1.008000
21593         HT  1795  TIP3    H2 21593   0.417000   1.008000
21594         OT  1796  TIP3   OH2 21594  -0.834000  15.999400
21595         HT  1796  TIP3    H1 21595   0.417000   1.008000
21596         HT  1796  TIP3    H2 21596   0.417000   1.008000
21597         OT  1797  TIP3   OH2 21597  -0.834000  15.999400
21598         HT  1797  TIP3    H1 21598   0.417000   1.008000
21599         HT  1797  TIP3    H2 21599   0.417000   1.008000
21600         OT  1798  TIP3   OH2 21600  -0.834000  15.999400
21601         HT  1798  TIP3    H1 21601   0.417000   1.008000
21602         HT  1798  TIP3    H2 21602   0.417000   1.008000
21603         OT  1799  TIP3   OH2 21603  -0.834000  15.999400
21604         HT  1799  TIP3    H1 21604   0.417000   1.008000
21605         HT  1799  TIP3    H2 21605   0.417000   1.008000
21606         OT  1800  TIP3   OH2 21606  -0.834000  15.999400
21607         HT  1800  TIP3    H1 21607   0.417000   1.008000
21608         HT  1800  TIP3    H2 21608   0.417000   1.008000
21609         OT  1801  TIP3   OH2 21609  -0.834000  15.999400
21610         HT  1801  TIP3    H1 21610   0.417000   1.008000
21611         HT  1801  TIP3    H2 21611   0.417000   1.008000
21612         OT  1802  TIP3   OH2 21612  -0.834000  15.999400
21613         HT  1802  TIP3    H1 21613   0.417000   1.008000
21614         HT  1802  TIP3    H2 21614   0.417000   1.008000
21615         OT  1803  TIP3   OH2 21615  -0.834000  15.999400
21616         HT  1803  TIP3    H1 21616   0.417000   1.008000
21617         HT  1803  TIP3    H2 21617   0.417000   1.008000
21618         OT  1804  TIP3   OH2 21618  -0.834000  15.999400
21619         HT  1804  TIP3    H1 21619   0.417000   1.008000
21620         HT  1804  TIP3    H2 21620   0.417000   1.008000
21621         OT  1805  TIP3   OH2 21621  -0.834000  15.999400
21622         HT  1805  TIP3    H1 21622   0.417000   1.008000
21623         HT  1805  TIP3    H2 21623   0.417000   1.008000
21624         OT  1806  TIP3   OH2 21624  -0.834000  15.999400
21625         HT  1806  TIP3    H1 21625   0.417000   1.008000
21626         HT  1806  TIP3    H2 21626   0.417000   1.008000
21627         OT  1807  TIP3   OH2 21627  -0.834000  15.999400
21628         HT  1807  TIP3    H1 21628   0.417000   1.008000
21629         HT  1807  TIP3    H2 21629   0.417000   1.008000
21630         OT  1808  TIP3   OH2 21630  -0.834000  15.999400
21631         HT  1808  TIP3    H1 21631   0.417000   1.008000
21632         HT  1808  TIP3    H2 21632   0.417000   1.008000
21633         OT  1809  TIP3   OH2 21633  -0.834000  15.999400
21634         HT  1809  TIP3    H1 21634   0.417000   1.008000
21635         HT  1809  TIP3    H2 21635   0.417000   1.008000
21636         OT  1810  TIP3   OH2 21636  -0.834000  15.999400
21637         HT  1810  TIP3    H1 21637   0.417000   1.008000
21638         HT  1810  TIP3    H2 21638   0.417000   1.008000
21639         OT  1811  TIP3   OH2 21639  -0.834000  15.999400
21640         HT  1811  TIP3    H1 21640   0.417000   1.008000
21641         HT  1811  TIP3    H2 21641   0.417000   1.008000
21642         OT  1812  TIP3   OH2 21642  -0.834000  15.999400
21643         HT  1812  TIP3    H1 21643   0.417000   1.008000
21644         HT  1812  TIP3    H2 21644   0.417000   1.008000
21645         OT  1813  TIP3   OH2 21645  -0.834000  15.999400
21646         HT  1813  TIP3    H1 21646   0.417000   1.008000
21647         HT  1813  TIP3    H2 21647   0.417000   1.008000
21648         OT  1814  TIP3   OH2 21648  -0.834000  15.999400
21649         HT  1814  TIP3    H1 21649   0.417000   1.008000
21650         HT  1814  TIP3    H2 21650   0.417000   1.008000
21651         OT  1815  TIP3   OH2 21651  -0.834000  15.999400
21652         HT  1815  TIP3    H1 21652   0.417000   1.008000
21653         HT  1815  TIP3    H2 21653   0.417000   1.008000
21654         OT  1816  TIP3   OH2 21654  -0.834000  15.999400
21655         HT  1816  TIP3    H1 21655   0.417000   1.008000
21656         HT  1816  TIP3    H2 21656   0.417000   1.008000
21657         OT  1817  TIP3   OH2 21657  -0.834000  15.999400
21658         HT  1817  TIP3    H1 21658   0.417000   1.008000
21659         HT  1817  TIP3    H2 21659   0.417000   1.008000
21660         OT  1818  TIP3   OH2 21660  -0.834000  15.999400
21661         HT  1818  TIP3    H1 21661   0.417000   1.008000
21662         HT  1818  TIP3    H2 21662   0.417000   1.008000
21663         OT  1819  TIP3   OH2 21663  -0.834000  15.999400
21664         HT  1819  TIP3    H1 21664   0.417000   1.008000
21665         HT  1819  TIP3    H2 21665   0.417000   1.008000
21666         OT  1820  TIP3   OH2 21666  -0.834000  15.999400
21667         HT  1820  TIP3    H1 21667   0.417000   1.008000
21668         HT  1820  TIP3    H2 21668   0.417000   1.008000
21669         OT  1821  TIP3   OH2 21669  -0.834000  15.999400
21670         HT  1821  TIP3    H1 21670   0.417000   1.008000
21671         HT  1821  TIP3    H2 21671   0.417000   1.008000
21672         OT  1822  TIP3   OH2 21672  -0.834000  15.999400
21673         HT  1822  TIP3    H1 21673   0.417000   1.008000
21674         HT  1822  TIP3    H2 21674   0.417000   1.008000
21675         OT  1823  TIP3   OH2 21675  -0.834000  15.999400
21676         HT  1823  TIP3    H1 21676   0.417000   1.008000
21677         HT  1823  TIP3    H2 21677   0.417000   1.008000
21678         OT  1824  TIP3   OH2 21678  -0.834000  15.999400
21679         HT  1824  TIP3    H1 21679   0.417000   1.008000
21680         HT  1824  TIP3    H2 21680   0.417000   1.008000
21681         OT  1825  TIP3   OH2 21681  -0.834000  15.999400
21682         HT  1825  TIP3    H1 21682   0.417000   1.008000
21683         HT  1825  TIP3    H2 21683   0.417000   1.008000
21684         OT  1826  TIP3   OH2 21684  -0.834000  15.999400
21685         HT  1826  TIP3    H1 21685   0.417000   1.008000
21686         HT  1826  TIP3    H2 21686   0.417000   1.008000
21687         OT  1827  TIP3   OH2 21687  -0.834000  15.999400
21688         HT  1827  TIP3    H1 21688   0.417000   1.008000
21689         HT  1827  TIP3    H2 21689   0.417000   1.008000
21690         OT  1828  TIP3   OH2 21690  -0.834000  15.999400
21691         HT  1828  TIP3    H1 21691   0.417000   1.008000
21692         HT  1828  TIP3    H2 21692   0.417000   1.008000
21693         OT  1829  TIP3   OH2 21693  -0.834000  15.999400
21694         HT  1829  TIP3    H1 21694   0.417000   1.008000
21695         HT  1829  TIP3    H2 21695   0.417000   1.008000
21696         OT  1830  TIP3   OH2 21696  -0.834000  15.999400
21697         HT  1830  TIP3    H1 21697   0.417000   1.008000
21698         HT  1830  TIP3    H2 21698   0.417000   1.008000
21699         OT  1831  TIP3   OH2 21699  -0.834000  15.999400
21700         HT  1831  TIP3    H1 21700   0.417000   1.008000
21701         HT  1831  TIP3    H2 21701   0.417000   1.008000
21702         OT  1832  TIP3   OH2 21702  -0.834000  15.999400
21703         HT  1832  TIP3    H1 21703   0.417000   1.008000
21704         HT  1832  TIP3    H2 21704   0.417000   1.008000
21705         OT  1833  TIP3   OH2 21705  -0.834000  15.999400
21706         HT  1833  TIP3    H1 21706   0.417000   1.008000
21707         HT  1833  TIP3    H2 21707   0.417000   1.008000
21708         OT  1834  TIP3   OH2 21708  -0.834000  15.999400
21709         HT  1834  TIP3    H1 21709   0.417000   1.008000
21710         HT  1834  TIP3    H2 21710   0.417000   1.008000
21711         OT  1835  TIP3   OH2 21711  -0.834000  15.999400
21712         HT  1835  TIP3    H1 21712   0.417000   1.008000
21713         HT  1835  TIP3    H2 21713   0.417000   1.008000
21714         OT  1836  TIP3   OH2 21714  -0.834000  15.999400
21715         HT  1836  TIP3    H1 21715   0.417000   1.008000
21716         HT  1836  TIP3    H2 21716   0.417000   1.008000
21717         OT  1837  TIP3   OH2 21717  -0.834000  15.999400
21718         HT  1837  TIP3    H1 21718   0.417000   1.008000
21719         HT  1837  TIP3    H2 21719   0.417000   1.008000
21720         OT  1838  TIP3   OH2 21720  -0.834000  15.999400
21721         HT  1838  TIP3    H1 21721   0.417000   1.008000
21722         HT  1838  TIP3    H2 21722   0.417000   1.008000
21723         OT  1839  TIP3   OH2 21723  -0.834000  15.999400
21724         HT  1839  TIP3    H1 21724   0.417000   1.008000
21725         HT  1839  TIP3    H2 21725   0.417000   1.008000
21726         OT  1840  TIP3   OH2 21726  -0.834000  15.999400
21727         HT  1840  TIP3    H1 21727   0.417000   1.008000
21728         HT  1840  TIP3    H2 21728   0.417000   1.008000
21729         OT  1841  TIP3   OH2 21729  -0.834000  15.999400
21730         HT  1841  TIP3    H1 21730   0.417000   1.008000
21731         HT  1841  TIP3    H2 21731   0.417000   1.008000
21732         OT  1842  TIP3   OH2 21732  -0.834000  15.999400
21733         HT  1842  TIP3    H1 21733   0.417000   1.008000
21734         HT  1842  TIP3    H2 21734   0.417000   1.008000
21735         OT  1843  TIP3   OH2 21735  -0.834000  15.999400
21736         HT  1843  TIP3    H1 21736   0.417000   1.008000
21737         HT  1843  TIP3    H2 21737   0.417000   1.008000
21738         OT  1844  TIP3   OH2 21738  -0.834000  15.999400
21739         HT  1844  TIP3    H1 21739   0.417000   1.008000
21740         HT  1844  TIP3    H2 21740   0.417000   1.008000
21741         OT  1845  TIP3   OH2 21741  -0.834000  15.999400
21742         HT  1845  TIP3    H1 21742   0.417000   1.008000
21743         HT  1845  TIP3    H2 21743   0.417000   1.008000
21744         OT  1846  TIP3   OH2 21744  -0.834000  15.999400
21745         HT  1846  TIP3    H1 21745   0.417000   1.008000
21746         HT  1846  TIP3    H2 21746   0.417000   1.008000
21747         OT  1847  TIP3   OH2 21747  -0.834000  15.999400
21748         HT  1847  TIP3    H1 21748   0.417000   1.008000
21749         HT  1847  TIP3    H2 21749   0.417000   1.008000
21750         OT  1848  TIP3   OH2 21750  -0.834000  15.999400
21751         HT  1848  TIP3    H1 21751   0.417000   1.008000
21752         HT  1848  TIP3    H2 21752   0.417000   1.008000
21753         OT  1849  TIP3   OH2 21753  -0.834000  15.999400
21754         HT  1849  TIP3    H1 21754   0.417000   1.008000
21755         HT  1849  TIP3    H2 21755   0.417000   1.008000
21756         OT  1850  TIP3   OH2 21756  -0.834000  15.999400
21757         HT  1850  TIP3    H1 21757   0.417000   1.008000
21758         HT  1850  TIP3    H2 21758   0.417000   1.008000
21759         OT  1851  TIP3   OH2 21759  -0.834000  15.999400
21760         HT  1851  TIP3    H1 21760   0.417000   1.008000
21761         HT  1851  TIP3    H2 21761   0.417000   1.008000
21762         OT  1852  TIP3   OH2 21762  -0.834000  15.999400
21763         HT  1852  TIP3    H1 21763   0.417000   1.008000
21764         HT  1852  TIP3    H2 21764   0.417000   1.008000
21765         OT  1853  TIP3   OH2 21765  -0.834000  15.999400
21766         HT  1853  TIP3    H1 21766   0.417000   1.008000
21767         HT  1853  TIP3    H2 21767   0.417000   1.008000
21768         OT  1854  TIP3   OH2 21768  -0.834000  15.999400
21769         HT  1854  TIP3    H1 21769   0.417000   1.008000
21770         HT  1854  TIP3    H2 21770   0.417000   1.008000
21771         OT  1855  TIP3   OH2 21771  -0.834000  15.999400
21772         HT  1855  TIP3    H1 21772   0.417000   1.008000
21773         HT  1855  TIP3    H2 21773   0.417000   1.008000
21774         OT  1856  TIP3   OH2 21774  -0.834000  15.999400
21775         HT  1856  TIP3    H1 21775   0.417000   1.008000
21776         HT  1856  TIP3    H2 21776   0.417000   1.008000
21777         OT  1857  TIP3   OH2 21777  -0.834000  15.999400
21778         HT  1857  TIP3    H1 21778   0.417000   1.008000
21779         HT  1857  TIP3    H2 21779   0.417000   1.008000
21780         OT  1858  TIP3   OH2 21780  -0.834000  15.999400
21781         HT  1858  TIP3    H1 21781   0.417000   1.008000
21782         HT  1858  TIP3    H2 21782   0.417000   1.008000
21783         OT  1859  TIP3   OH2 21783  -0.834000  15.999400
21784         HT  1859  TIP3    H1 21784   0.417000   1.008000
21785         HT  1859  TIP3    H2 21785   0.417000   1.008000
21786         OT  1860  TIP3   OH2 21786  -0.834000  15.999400
21787         HT  1860  TIP3    H1 21787   0.417000   1.008000
21788         HT  1860  TIP3    H2 21788   0.417000   1.008000
21789         OT  1861  TIP3   OH2 21789  -0.834000  15.999400
21790         HT  1861  TIP3    H1 21790   0.417000   1.008000
21791         HT  1861  TIP3    H2 21791   0.417000   1.008000
21792         OT  1862  TIP3   OH2 21792  -0.834000  15.999400
21793         HT  1862  TIP3    H1 21793   0.417000   1.008000
21794         HT  1862  TIP3    H2 21794   0.417000   1.008000
21795         OT  1863  TIP3   OH2 21795  -0.834000  15.999400
21796         HT  1863  TIP3    H1 21796   0.417000   1.008000
21797         HT  1863  TIP3    H2 21797   0.417000   1.008000
21798         OT  1864  TIP3   OH2 21798  -0.834000  15.999400
21799         HT  1864  TIP3    H1 21799   0.417000   1.008000
21800         HT  1864  TIP3    H2 21800   0.417000   1.008000
21801         OT  1865  TIP3   OH2 21801  -0.834000  15.999400
21802         HT  1865  TIP3    H1 21802   0.417000   1.008000
21803         HT  1865  TIP3    H2 21803   0.417000   1.008000
21804         OT  1866  TIP3   OH2 21804  -0.834000  15.999400
21805         HT  1866  TIP3    H1 21805   0.417000   1.008000
21806         HT  1866  TIP3    H2 21806   0.417000   1.008000
21807         OT  1867  TIP3   OH2 21807  -0.834000  15.999400
21808         HT  1867  TIP3    H1 21808   0.417000   1.008000
21809         HT  1867  TIP3    H2 21809   0.417000   1.008000
21810         OT  1868  TIP3   OH2 21810  -0.834000  15.999400
21811         HT  1868  TIP3    H1 21811   0.417000   1.008000
21812         HT  1868  TIP3    H2 21812   0.417000   1.008000
21813         OT  1869  TIP3   OH2 21813  -0.834000  15.999400
21814         HT  1869  TIP3    H1 21814   0.417000   1.008000
21815         HT  1869  TIP3    H2 21815   0.417000   1.008000
21816         OT  1870  TIP3   OH2 21816  -0.834000  15.999400
21817         HT  1870  TIP3    H1 21817   0.417000   1.008000
21818         HT  1870  TIP3    H2 21818   0.417000   1.008000
21819         OT  1871  TIP3   OH2 21819  -0.834000  15.999400
21820         HT  1871  TIP3    H1 21820   0.417000   1.008000
21821         HT  1871  TIP3    H2 21821   0.417000   1.008000
21822         OT  1872  TIP3   OH2 21822  -0.834000  15.999400
21823         HT  1872  TIP3    H1 21823   0.417000   1.008000
21824         HT  1872  TIP3    H2 21824   0.417000   1.008000
21825         OT  1873  TIP3   OH2 21825  -0.834000  15.999400
21826         HT  1873  TIP3    H1 21826   0.417000   1.008000
21827         HT  1873  TIP3    H2 21827   0.417000   1.008000
21828         OT  1874  TIP3   OH2 21828  -0.834000  15.999400
21829         HT  1874  TIP3    H1 21829   0.417000   1.008000
21830         HT  1874  TIP3    H2 21830   0.417000   1.008000
21831         OT  1875  TIP3   OH2 21831  -0.834000  15.999400
21832         HT  1875  TIP3    H1 21832   0.417000   1.008000
21833         HT  1875  TIP3    H2 21833   0.417000   1.008000
21834         OT  1876  TIP3   OH2 21834  -0.834000  15.999400
21835         HT  1876  TIP3    H1 21835   0.417000   1.008000
21836         HT  1876  TIP3    H2 21836   0.417000   1.008000
21837         OT  1877  TIP3   OH2 21837  -0.834000  15.999400
21838         HT  1877  TIP3    H1 21838   0.417000   1.008000
21839         HT  1877  TIP3    H2 21839   0.417000   1.008000
21840         OT  1878  TIP3   OH2 21840  -0.834000  15.999400
21841         HT  1878  TIP3    H1 21841   0.417000   1.008000
21842         HT  1878  TIP3    H2 21842   0.417000   1.008000
21843         OT  1879  TIP3   OH2 21843  -0.834000  15.999400
21844         HT  1879  TIP3    H1 21844   0.417000   1.008000
21845         HT  1879  TIP3    H2 21845   0.417000   1.008000
21846         OT  1880  TIP3   OH2 21846  -0.834000  15.999400
21847         HT  1880  TIP3    H1 21847   0.417000   1.008000
21848         HT  1880  TIP3    H2 21848   0.417000   1.008000
21849         OT  1881  TIP3   OH2 21849  -0.834000  15.999400
21850         HT  1881  TIP3    H1 21850   0.417000   1.008000
21851         HT  1881  TIP3    H2 21851   0.417000   1.008000
21852         OT  1882  TIP3   OH2 21852  -0.834000  15.999400
21853         HT  1882  TIP3    H1 21853   0.417000   1.008000
21854         HT  1882  TIP3    H2 21854   0.417000   1.008000
21855         OT  1883  TIP3   OH2 21855  -0.834000  15.999400
21856         HT  1883  TIP3    H1 21856   0.417000   1.008000
21857         HT  1883  TIP3    H2 21857   0.417000   1.008000
21858         OT  1884  TIP3   OH2 21858  -0.834000  15.999400
21859         HT  1884  TIP3    H1 21859   0.417000   1.008000
21860         HT  1884  TIP3    H2 21860   0.417000   1.008000
21861         OT  1885  TIP3   OH2 21861  -0.834000  15.999400
21862         HT  1885  TIP3    H1 21862   0.417000   1.008000
21863         HT  1885  TIP3    H2 21863   0.417000   1.008000
21864         OT  1886  TIP3   OH2 21864  -0.834000  15.999400
21865         HT  1886  TIP3    H1 21865   0.417000   1.008000
21866         HT  1886  TIP3    H2 21866   0.417000   1.008000
21867         OT  1887  TIP3   OH2 21867  -0.834000  15.999400
21868         HT  1887  TIP3    H1 21868   0.417000   1.008000
21869         HT  1887  TIP3    H2 21869   0.417000   1.008000
21870         OT  1888  TIP3   OH2 21870  -0.834000  15.999400
21871         HT  1888  TIP3    H1 21871   0.417000   1.008000
21872         HT  1888  TIP3    H2 21872   0.417000   1.008000
21873         OT  1889  TIP3   OH2 21873  -0.834000  15.999400
21874         HT  1889  TIP3    H1 21874   0.417000   1.008000
21875         HT  1889  TIP3    H2 21875   0.417000   1.008000
21876         OT  1890  TIP3   OH2 21876  -0.834000  15.999400
21877         HT  1890  TIP3    H1 21877   0.417000   1.008000
21878         HT  1890  TIP3    H2 21878   0.417000   1.008000
21879         OT  1891  TIP3   OH2 21879  -0.834000  15.999400
21880         HT  1891  TIP3    H1 21880   0.417000   1.008000
21881         HT  1891  TIP3    H2 21881   0.417000   1.008000
21882         OT  1892  TIP3   OH2 21882  -0.834000  15.999400
21883         HT  1892  TIP3    H1 21883   0.417000   1.008000
21884         HT  1892  TIP3    H2 21884   0.417000   1.008000
21885         OT  1893  TIP3   OH2 21885  -0.834000  15.999400
21886         HT  1893  TIP3    H1 21886   0.417000   1.008000
21887         HT  1893  TIP3    H2 21887   0.417000   1.008000
21888         OT  1894  TIP3   OH2 21888  -0.834000  15.999400
21889         HT  1894  TIP3    H1 21889   0.417000   1.008000
21890         HT  1894  TIP3    H2 21890   0.417000   1.008000
21891         OT  1895  TIP3   OH2 21891  -0.834000  15.999400
21892         HT  1895  TIP3    H1 21892   0.417000   1.008000
21893         HT  1895  TIP3    H2 21893   0.417000   1.008000
21894         OT  1896  TIP3   OH2 21894  -0.834000  15.999400
21895         HT  1896  TIP3    H1 21895   0.417000   1.008000
21896         HT  1896  TIP3    H2 21896   0.417000   1.008000
21897         OT  1897  TIP3   OH2 21897  -0.834000  15.999400
21898         HT  1897  TIP3    H1 21898   0.417000   1.008000
21899         HT  1897  TIP3    H2 21899   0.417000   1.008000
21900         OT  1898  TIP3   OH2 21900  -0.834000  15.999400
21901         HT  1898  TIP3    H1 21901   0.417000   1.008000
21902         HT  1898  TIP3    H2 21902   0.417000   1.008000
21903         OT  1899  TIP3   OH2 21903  -0.834000  15.999400
21904         HT  1899  TIP3    H1 21904   0.417000   1.008000
21905         HT  1899  TIP3    H2 21905   0.417000   1.008000
21906         OT  1900  TIP3   OH2 21906  -0.834000  15.999400
21907         HT  1900  TIP3    H1 21907   0.417000   1.008000
21908         HT  1900  TIP3    H2 21908   0.417000   1.008000
21909         OT  1901  TIP3   OH2 21909  -0.834000  15.999400
21910         HT  1901  TIP3    H1 21910   0.417000   1.008000
21911         HT  1901  TIP3    H2 21911   0.417000   1.008000
21912         OT  1902  TIP3   OH2 21912  -0.834000  15.999400
21913         HT  1902  TIP3    H1 21913   0.417000   1.008000
21914         HT  1902  TIP3    H2 21914   0.417000   1.008000
21915         OT  1903  TIP3   OH2 21915  -0.834000  15.999400
21916         HT  1903  TIP3    H1 21916   0.417000   1.008000
21917         HT  1903  TIP3    H2 21917   0.417000   1.008000
21918         OT  1904  TIP3   OH2 21918  -0.834000  15.999400
21919         HT  1904  TIP3    H1 21919   0.417000   1.008000
21920         HT  1904  TIP3    H2 21920   0.417000   1.008000
21921         OT  1905  TIP3   OH2 21921  -0.834000  15.999400
21922         HT  1905  TIP3    H1 21922   0.417000   1.008000
21923         HT  1905  TIP3    H2 21923   0.417000   1.008000
21924         OT  1906  TIP3   OH2 21924  -0.834000  15.999400
21925         HT  1906  TIP3    H1 21925   0.417000   1.008000
21926         HT  1906  TIP3    H2 21926   0.417000   1.008000
21927         OT  1907  TIP3   OH2 21927  -0.834000  15.999400
21928         HT  1907  TIP3    H1 21928   0.417000   1.008000
21929         HT  1907  TIP3    H2 21929   0.417000   1.008000
21930         OT  1908  TIP3   OH2 21930  -0.834000  15.999400
21931         HT  1908  TIP3    H1 21931   0.417000   1.008000
21932         HT  1908  TIP3    H2 21932   0.417000   1.008000
21933         OT  1909  TIP3   OH2 21933  -0.834000  15.999400
21934         HT  1909  TIP3    H1 21934   0.417000   1.008000
21935         HT  1909  TIP3    H2 21935   0.417000   1.008000
21936         OT  1910  TIP3   OH2 21936  -0.834000  15.999400
21937         HT  1910  TIP3    H1 21937   0.417000   1.008000
21938         HT  1910  TIP3    H2 21938   0.417000   1.008000
21939         OT  1911  TIP3   OH2 21939  -0.834000  15.999400
21940         HT  1911  TIP3    H1 21940   0.417000   1.008000
21941         HT  1911  TIP3    H2 21941   0.417000   1.008000
21942         OT  1912  TIP3   OH2 21942  -0.834000  15.999400
21943         HT  1912  TIP3    H1 21943   0.417000   1.008000
21944         HT  1912  TIP3    H2 21944   0.417000   1.008000
21945         OT  1913  TIP3   OH2 21945  -0.834000  15.999400
21946         HT  1913  TIP3    H1 21946   0.417000   1.008000
21947         HT  1913  TIP3    H2 21947   0.417000   1.008000
21948         OT  1914  TIP3   OH2 21948  -0.834000  15.999400
21949         HT  1914  TIP3    H1 21949   0.417000   1.008000
21950         HT  1914  TIP3    H2 21950   0.417000   1.008000
21951         OT  1915  TIP3   OH2 21951  -0.834000  15.999400
21952         HT  1915  TIP3    H1 21952   0.417000   1.008000
21953         HT  1915  TIP3    H2 21953   0.417000   1.008000
21954         OT  1916  TIP3   OH2 21954  -0.834000  15.999400
21955         HT  1916  TIP3    H1 21955   0.417000   1.008000
21956         HT  1916  TIP3    H2 21956   0.417000   1.008000
21957         OT  1917  TIP3   OH2 21957  -0.834000  15.999400
21958         HT  1917  TIP3    H1 21958   0.417000   1.008000
21959         HT  1917  TIP3    H2 21959   0.417000   1.008000
21960         OT  1918  TIP3   OH2 21960  -0.834000  15.999400
21961         HT  1918  TIP3    H1 21961   0.417000   1.008000
21962         HT  1918  TIP3    H2 21962   0.417000   1.008000
21963         OT  1919  TIP3   OH2 21963  -0.834000  15.999400
21964         HT  1919  TIP3    H1 21964   0.417000   1.008000
21965         HT  1919  TIP3    H2 21965   0.417000   1.008000
21966         OT  1920  TIP3   OH2 21966  -0.834000  15.999400
21967         HT  1920  TIP3    H1 21967   0.417000   1.008000
21968         HT  1920  TIP3    H2 21968   0.417000   1.008000
21969         OT  1921  TIP3   OH2 21969  -0.834000  15.999400
21970         HT  1921  TIP3    H1 21970   0.417000   1.008000
21971         HT  1921  TIP3    H2 21971   0.417000   1.008000
21972         OT  1922  TIP3   OH2 21972  -0.834000  15.999400
21973         HT  1922  TIP3    H1 21973   0.417000   1.008000
21974         HT  1922  TIP3    H2 21974   0.417000   1.008000
21975         OT  1923  TIP3   OH2 21975  -0.834000  15.999400
21976         HT  1923  TIP3    H1 21976   0.417000   1.008000
21977         HT  1923  TIP3    H2 21977   0.417000   1.008000
21978         OT  1924  TIP3   OH2 21978  -0.834000  15.999400
21979         HT  1924  TIP3    H1 21979   0.417000   1.008000
21980         HT  1924  TIP3    H2 21980   0.417000   1.008000
21981         OT  1925  TIP3   OH2 21981  -0.834000  15.999400
21982         HT  1925  TIP3    H1 21982   0.417000   1.008000
21983         HT  1925  TIP3    H2 21983   0.417000   1.008000
21984         OT  1926  TIP3   OH2 21984  -0.834000  15.999400
21985         HT  1926  TIP3    H1 21985   0.417000   1.008000
21986         HT  1926  TIP3    H2 21986   0.417000   1.008000
21987         OT  1927  TIP3   OH2 21987  -0.834000  15.999400
21988         HT  1927  TIP3    H1 21988   0.417000   1.008000
21989         HT  1927  TIP3    H2 21989   0.417000   1.008000
21990         OT  1928  TIP3   OH2 21990  -0.834000  15.999400
21991         HT  1928  TIP3    H1 21991   0.417000   1.008000
21992         HT  1928  TIP3    H2 21992   0.417000   1.008000
21993         OT  1929  TIP3   OH2 21993  -0.834000  15.999400
21994         HT  1929  TIP3    H1 21994   0.417000   1.008000
21995         HT  1929  TIP3    H2 21995   0.417000   1.008000
21996         OT  1930  TIP3   OH2 21996  -0.834000  15.999400
21997         HT  1930  TIP3    H1 21997   0.417000   1.008000
21998         HT  1930  TIP3    H2 21998   0.417000   1.008000
21999         OT  1931  TIP3   OH2 21999  -0.834000  15.999400
22000         HT  1931  TIP3    H1 22000   0.417000   1.008000
22001         HT  1931  TIP3    H2 22001   0.417000   1.008000
22002         OT  1932  TIP3   OH2 22002  -0.834000  15.999400
22003         HT  1932  TIP3    H1 22003   0.417000   1.008000
22004         HT  1932  TIP3    H2 22004   0.417000   1.008000
22005         OT  1933  TIP3   OH2 22005  -0.834000  15.999400
22006         HT  1933  TIP3    H1 22006   0.417000   1.008000
22007         HT  1933  TIP3    H2 22007   0.417000   1.008000
22008         OT  1934  TIP3   OH2 22008  -0.834000  15.999400
22009         HT  1934  TIP3    H1 22009   0.417000   1.008000
22010         HT  1934  TIP3    H2 22010   0.417000   1.008000
22011         OT  1935  TIP3   OH2 22011  -0.834000  15.999400
22012         HT  1935  TIP3    H1 22012   0.417000   1.008000
22013         HT  1935  TIP3    H2 22013   0.417000   1.008000
22014         OT  1936  TIP3   OH2 22014  -0.834000  15.999400
22015         HT  1936  TIP3    H1 22015   0.417000   1.008000
22016         HT  1936  TIP3    H2 22016   0.417000   1.008000
22017         OT  1937  TIP3   OH2 22017  -0.834000  15.999400
22018         HT  1937  TIP3    H1 22018   0.417000   1.008000
22019         HT  1937  TIP3    H2 22019   0.417000   1.008000
22020         OT  1938  TIP3   OH2 22020  -0.834000  15.999400
22021         HT  1938  TIP3    H1 22021   0.417000   1.008000
22022         HT  1938  TIP3    H2 22022   0.417000   1.008000
22023         OT  1939  TIP3   OH2 22023  -0.834000  15.999400
22024         HT  1939  TIP3    H1 22024   0.417000   1.008000
22025         HT  1939  TIP3    H2 22025   0.417000   1.008000
22026         OT  1940  TIP3   OH2 22026  -0.834000  15.999400
22027         HT  1940  TIP3    H1 22027   0.417000   1.008000
22028         HT  1940  TIP3    H2 22028   0.417000   1.008000
22029         OT  1941  TIP3   OH2 22029  -0.834000  15.999400
22030         HT  1941  TIP3    H1 22030   0.417000   1.008000
22031         HT  1941  TIP3    H2 22031   0.417000   1.008000
22032         OT  1942  TIP3   OH2 22032  -0.834000  15.999400
22033         HT  1942  TIP3    H1 22033   0.417000   1.008000
22034         HT  1942  TIP3    H2 22034   0.417000   1.008000
22035         OT  1943  TIP3   OH2 22035  -0.834000  15.999400
22036         HT  1943  TIP3    H1 22036   0.417000   1.008000
22037         HT  1943  TIP3    H2 22037   0.417000   1.008000
22038         OT  1944  TIP3   OH2 22038  -0.834000  15.999400
22039         HT  1944  TIP3    H1 22039   0.417000   1.008000
22040         HT  1944  TIP3    H2 22040   0.417000   1.008000
22041         OT  1945  TIP3   OH2 22041  -0.834000  15.999400
22042         HT  1945  TIP3    H1 22042   0.417000   1.008000
22043         HT  1945  TIP3    H2 22043   0.417000   1.008000
22044         OT  1946  TIP3   OH2 22044  -0.834000  15.999400
22045         HT  1946  TIP3    H1 22045   0.417000   1.008000
22046         HT  1946  TIP3    H2 22046   0.417000   1.008000
22047         OT  1947  TIP3   OH2 22047  -0.834000  15.999400
22048         HT  1947  TIP3    H1 22048   0.417000   1.008000
22049         HT  1947  TIP3    H2 22049   0.417000   1.008000
22050         OT  1948  TIP3   OH2 22050  -0.834000  15.999400
22051         HT  1948  TIP3    H1 22051   0.417000   1.008000
22052         HT  1948  TIP3    H2 22052   0.417000   1.008000
22053         OT  1949  TIP3   OH2 22053  -0.834000  15.999400
22054         HT  1949  TIP3    H1 22054   0.417000   1.008000
22055         HT  1949  TIP3    H2 22055   0.417000   1.008000
22056         OT  1950  TIP3   OH2 22056  -0.834000  15.999400
22057         HT  1950  TIP3    H1 22057   0.417000   1.008000
22058         HT  1950  TIP3    H2 22058   0.417000   1.008000
22059         OT  1951  TIP3   OH2 22059  -0.834000  15.999400
22060         HT  1951  TIP3    H1 22060   0.417000   1.008000
22061         HT  1951  TIP3    H2 22061   0.417000   1.008000
22062         OT  1952  TIP3   OH2 22062  -0.834000  15.999400
22063         HT  1952  TIP3    H1 22063   0.417000   1.008000
22064         HT  1952  TIP3    H2 22064   0.417000   1.008000
22065         OT  1953  TIP3   OH2 22065  -0.834000  15.999400
22066         HT  1953  TIP3    H1 22066   0.417000   1.008000
22067         HT  1953  TIP3    H2 22067   0.417000   1.008000
22068         OT  1954  TIP3   OH2 22068  -0.834000  15.999400
22069         HT  1954  TIP3    H1 22069   0.417000   1.008000
22070         HT  1954  TIP3    H2 22070   0.417000   1.008000
22071         OT  1955  TIP3   OH2 22071  -0.834000  15.999400
22072         HT  1955  TIP3    H1 22072   0.417000   1.008000
22073         HT  1955  TIP3    H2 22073   0.417000   1.008000
22074         OT  1956  TIP3   OH2 22074  -0.834000  15.999400
22075         HT  1956  TIP3    H1 22075   0.417000   1.008000
22076         HT  1956  TIP3    H2 22076   0.417000   1.008000
22077         OT  1957  TIP3   OH2 22077  -0.834000  15.999400
22078         HT  1957  TIP3    H1 22078   0.417000   1.008000
22079         HT  1957  TIP3    H2 22079   0.417000   1.008000
22080         OT  1958  TIP3   OH2 22080  -0.834000  15.999400
22081         HT  1958  TIP3    H1 22081   0.417000   1.008000
22082         HT  1958  TIP3    H2 22082   0.417000   1.008000
22083         OT  1959  TIP3   OH2 22083  -0.834000  15.999400
22084         HT  1959  TIP3    H1 22084   0.417000   1.008000
22085         HT  1959  TIP3    H2 22085   0.417000   1.008000
22086         OT  1960  TIP3   OH2 22086  -0.834000  15.999400
22087         HT  1960  TIP3    H1 22087   0.417000   1.008000
22088         HT  1960  TIP3    H2 22088   0.417000   1.008000
22089         OT  1961  TIP3   OH2 22089  -0.834000  15.999400
22090         HT  1961  TIP3    H1 22090   0.417000   1.008000
22091         HT  1961  TIP3    H2 22091   0.417000   1.008000
22092         OT  1962  TIP3   OH2 22092  -0.834000  15.999400
22093         HT  1962  TIP3    H1 22093   0.417000   1.008000
22094         HT  1962  TIP3    H2 22094   0.417000   1.008000
22095         OT  1963  TIP3   OH2 22095  -0.834000  15.999400
22096         HT  1963  TIP3    H1 22096   0.417000   1.008000
22097         HT  1963  TIP3    H2 22097   0.417000   1.008000
22098         OT  1964  TIP3   OH2 22098  -0.834000  15.999400
22099         HT  1964  TIP3    H1 22099   0.417000   1.008000
22100         HT  1964  TIP3    H2 22100   0.417000   1.008000
22101         OT  1965  TIP3   OH2 22101  -0.834000  15.999400
22102         HT  1965  TIP3    H1 22102   0.417000   1.008000
22103         HT  1965  TIP3    H2 22103   0.417000   1.008000
22104         OT  1966  TIP3   OH2 22104  -0.834000  15.999400
22105         HT  1966  TIP3    H1 22105   0.417000   1.008000
22106         HT  1966  TIP3    H2 22106   0.417000   1.008000
22107         OT  1967  TIP3   OH2 22107  -0.834000  15.999400
22108         HT  1967  TIP3    H1 22108   0.417000   1.008000
22109         HT  1967  TIP3    H2 22109   0.417000   1.008000
22110         OT  1968  TIP3   OH2 22110  -0.834000  15.999400
22111         HT  1968  TIP3    H1 22111   0.417000   1.008000
22112         HT  1968  TIP3    H2 22112   0.417000   1.008000
22113         OT  1969  TIP3   OH2 22113  -0.834000  15.999400
22114         HT  1969  TIP3    H1 22114   0.417000   1.008000
22115         HT  1969  TIP3    H2 22115   0.417000   1.008000
22116         OT  1970  TIP3   OH2 22116  -0.834000  15.999400
22117         HT  1970  TIP3    H1 22117   0.417000   1.008000
22118         HT  1970  TIP3    H2 22118   0.417000   1.008000
22119         OT  1971  TIP3   OH2 22119  -0.834000  15.999400
22120         HT  1971  TIP3    H1 22120   0.417000   1.008000
22121         HT  1971  TIP3    H2 22121   0.417000   1.008000
22122         OT  1972  TIP3   OH2 22122  -0.834000  15.999400
22123         HT  1972  TIP3    H1 22123   0.417000   1.008000
22124         HT  1972  TIP3    H2 22124   0.417000   1.008000
22125         OT  1973  TIP3   OH2 22125  -0.834000  15.999400
22126         HT  1973  TIP3    H1 22126   0.417000   1.008000
22127         HT  1973  TIP3    H2 22127   0.417000   1.008000
22128         OT  1974  TIP3   OH2 22128  -0.834000  15.999400
22129         HT  1974  TIP3    H1 22129   0.417000   1.008000
22130         HT  1974  TIP3    H2 22130   0.417000   1.008000
22131         OT  1975  TIP3   OH2 22131  -0.834000  15.999400
22132         HT  1975  TIP3    H1 22132   0.417000   1.008000
22133         HT  1975  TIP3    H2 22133   0.417000   1.008000
22134         OT  1976  TIP3   OH2 22134  -0.834000  15.999400
22135         HT  1976  TIP3    H1 22135   0.417000   1.008000
22136         HT  1976  TIP3    H2 22136   0.417000   1.008000
22137         OT  1977  TIP3   OH2 22137  -0.834000  15.999400
22138         HT  1977  TIP3    H1 22138   0.417000   1.008000
22139         HT  1977  TIP3    H2 22139   0.417000   1.008000
22140         OT  1978  TIP3   OH2 22140  -0.834000  15.999400
22141         HT  1978  TIP3    H1 22141   0.417000   1.008000
22142         HT  1978  TIP3    H2 22142   0.417000   1.008000
22143         OT  1979  TIP3   OH2 22143  -0.834000  15.999400
22144         HT  1979  TIP3    H1 22144   0.417000   1.008000
22145         HT  1979  TIP3    H2 22145   0.417000   1.008000
22146         OT  1980  TIP3   OH2 22146  -0.834000  15.999400
22147         HT  1980  TIP3    H1 22147   0.417000   1.008000
22148         HT  1980  TIP3    H2 22148   0.417000   1.008000
22149         OT  1981  TIP3   OH2 22149  -0.834000  15.999400
22150         HT  1981  TIP3    H1 22150   0.417000   1.008000
22151         HT  1981  TIP3    H2 22151   0.417000   1.008000
22152         OT  1982  TIP3   OH2 22152  -0.834000  15.999400
22153         HT  1982  TIP3    H1 22153   0.417000   1.008000
22154         HT  1982  TIP3    H2 22154   0.417000   1.008000
22155         OT  1983  TIP3   OH2 22155  -0.834000  15.999400
22156         HT  1983  TIP3    H1 22156   0.417000   1.008000
22157         HT  1983  TIP3    H2 22157   0.417000   1.008000
22158         OT  1984  TIP3   OH2 22158  -0.834000  15.999400
22159         HT  1984  TIP3    H1 22159   0.417000   1.008000
22160         HT  1984  TIP3    H2 22160   0.417000   1.008000
22161         OT  1985  TIP3   OH2 22161  -0.834000  15.999400
22162         HT  1985  TIP3    H1 22162   0.417000   1.008000
22163         HT  1985  TIP3    H2 22163   0.417000   1.008000
22164         OT  1986  TIP3   OH2 22164  -0.834000  15.999400
22165         HT  1986  TIP3    H1 22165   0.417000   1.008000
22166         HT  1986  TIP3    H2 22166   0.417000   1.008000
22167         OT  1987  TIP3   OH2 22167  -0.834000  15.999400
22168         HT  1987  TIP3    H1 22168   0.417000   1.008000
22169         HT  1987  TIP3    H2 22169   0.417000   1.008000
22170         OT  1988  TIP3   OH2 22170  -0.834000  15.999400
22171         HT  1988  TIP3    H1 22171   0.417000   1.008000
22172         HT  1988  TIP3    H2 22172   0.417000   1.008000
22173         OT  1989  TIP3   OH2 22173  -0.834000  15.999400
22174         HT  1989  TIP3    H1 22174   0.417000   1.008000
22175         HT  1989  TIP3    H2 22175   0.417000   1.008000
22176         OT  1990  TIP3   OH2 22176  -0.834000  15.999400
22177         HT  1990  TIP3    H1 22177   0.417000   1.008000
22178         HT  1990  TIP3    H2 22178   0.417000   1.008000
22179         OT  1991  TIP3   OH2 22179  -0.834000  15.999400
22180         HT  1991  TIP3    H1 22180   0.417000   1.008000
22181         HT  1991  TIP3    H2 22181   0.417000   1.008000
22182         OT  1992  TIP3   OH2 22182  -0.834000  15.999400
22183         HT  1992  TIP3    H1 22183   0.417000   1.008000
22184         HT  1992  TIP3    H2 22184   0.417000   1.008000
22185         OT  1993  TIP3   OH2 22185  -0.834000  15.999400
22186         HT  1993  TIP3    H1 22186   0.417000   1.008000
22187         HT  1993  TIP3    H2 22187   0.417000   1.008000
22188         OT  1994  TIP3   OH2 22188  -0.834000  15.999400
22189         HT  1994  TIP3    H1 22189   0.417000   1.008000
22190         HT  1994  TIP3    H2 22190   0.417000   1.008000
22191         OT  1995  TIP3   OH2 22191  -0.834000  15.999400
22192         HT  1995  TIP3    H1 22192   0.417000   1.008000
22193         HT  1995  TIP3    H2 22193   0.417000   1.008000
22194         OT  1996  TIP3   OH2 22194  -0.834000  15.999400
22195         HT  1996  TIP3    H1 22195   0.417000   1.008000
22196         HT  1996  TIP3    H2 22196   0.417000   1.008000
22197         OT  1997  TIP3   OH2 22197  -0.834000  15.999400
22198         HT  1997  TIP3    H1 22198   0.417000   1.008000
22199         HT  1997  TIP3    H2 22199   0.417000   1.008000
22200         OT  1998  TIP3   OH2 22200  -0.834000  15.999400
22201         HT  1998  TIP3    H1 22201   0.417000   1.008000
22202         HT  1998  TIP3    H2 22202   0.417000   1.008000
22203         OT  1999  TIP3   OH2 22203  -0.834000  15.999400
22204         HT  1999  TIP3    H1 22204   0.417000   1.008000
22205         HT  1999  TIP3    H2 22205   0.417000   1.008000
22206         OT  2000  TIP3   OH2 22206  -0.834000  15.999400
22207         HT  2000  TIP3    H1 22207   0.417000   1.008000
22208         HT  2000  TIP3    H2 22208   0.417000   1.008000
22209         OT  2001  TIP3   OH2 22209  -0.834000  15.999400
22210         HT  2001  TIP3    H1 22210   0.417000   1.008000
22211         HT  2001  TIP3    H2 22211   0.417000   1.008000
22212         OT  2002  TIP3   OH2 22212  -0.834000  15.999400
22213         HT  2002  TIP3    H1 22213   0.417000   1.008000
22214         HT  2002  TIP3    H2 22214   0.417000   1.008000
22215         OT  2003  TIP3   OH2 22215  -0.834000  15.999400
22216         HT  2003  TIP3    H1 22216   0.417000   1.008000
22217         HT  2003  TIP3    H2 22217   0.417000   1.008000
22218         OT  2004  TIP3   OH2 22218  -0.834000  15.999400
22219         HT  2004  TIP3    H1 22219   0.417000   1.008000
22220         HT  2004  TIP3    H2 22220   0.417000   1.008000
22221         OT  2005  TIP3   OH2 22221  -0.834000  15.999400
22222         HT  2005  TIP3    H1 22222   0.417000   1.008000
22223         HT  2005  TIP3    H2 22223   0.417000   1.008000
22224         OT  2006  TIP3   OH2 22224  -0.834000  15.999400
22225         HT  2006  TIP3    H1 22225   0.417000   1.008000
22226         HT  2006  TIP3    H2 22226   0.417000   1.008000
22227         OT  2007  TIP3   OH2 22227  -0.834000  15.999400
22228         HT  2007  TIP3    H1 22228   0.417000   1.008000
22229         HT  2007  TIP3    H2 22229   0.417000   1.008000
22230         OT  2008  TIP3   OH2 22230  -0.834000  15.999400
22231         HT  2008  TIP3    H1 22231   0.417000   1.008000
22232         HT  2008  TIP3    H2 22232   0.417000   1.008000
22233         OT  2009  TIP3   OH2 22233  -0.834000  15.999400
22234         HT  2009  TIP3    H1 22234   0.417000   1.008000
22235         HT  2009  TIP3    H2 22235   0.417000   1.008000
22236         OT  2010  TIP3   OH2 22236  -0.834000  15.999400
22237         HT  2010  TIP3    H1 22237   0.417000   1.008000
22238         HT  2010  TIP3    H2 22238   0.417000   1.008000
22239         OT  2011  TIP3   OH2 22239  -0.834000  15.999400
22240         HT  2011  TIP3    H1 22240   0.417000   1.008000
22241         HT  2011  TIP3    H2 22241   0.417000   1.008000
22242         OT  2012  TIP3   OH2 22242  -0.834000  15.999400
22243         HT  2012  TIP3    H1 22243   0.417000   1.008000
22244         HT  2012  TIP3    H2 22244   0.417000   1.008000
22245         OT  2013  TIP3   OH2 22245  -0.834000  15.999400
22246         HT  2013  TIP3    H1 22246   0.417000   1.008000
22247         HT  2013  TIP3    H2 22247   0.417000   1.008000
22248         OT  2014  TIP3   OH2 22248  -0.834000  15.999400
22249         HT  2014  TIP3    H1 22249   0.417000   1.008000
22250         HT  2014  TIP3    H2 22250   0.417000   1.008000
22251         OT  2015  TIP3   OH2 22251  -0.834000  15.999400
22252         HT  2015  TIP3    H1 22252   0.417000   1.008000
22253         HT  2015  TIP3    H2 22253   0.417000   1.008000
22254         OT  2016  TIP3   OH2 22254  -0.834000  15.999400
22255         HT  2016  TIP3    H1 22255   0.417000   1.008000
22256         HT  2016  TIP3    H2 22256   0.417000   1.008000
22257         OT  2017  TIP3   OH2 22257  -0.834000  15.999400
22258         HT  2017  TIP3    H1 22258   0.417000   1.008000
22259         HT  2017  TIP3    H2 22259   0.417000   1.008000
22260         OT  2018  TIP3   OH2 22260  -0.834000  15.999400
22261         HT  2018  TIP3    H1 22261   0.417000   1.008000
22262         HT  2018  TIP3    H2 22262   0.417000   1.008000
22263         OT  2019  TIP3   OH2 22263  -0.834000  15.999400
22264         HT  2019  TIP3    H1 22264   0.417000   1.008000
22265         HT  2019  TIP3    H2 22265   0.417000   1.008000
22266         OT  2020  TIP3   OH2 22266  -0.834000  15.999400
22267         HT  2020  TIP3    H1 22267   0.417000   1.008000
22268         HT  2020  TIP3    H2 22268   0.417000   1.008000
22269         OT  2021  TIP3   OH2 22269  -0.834000  15.999400
22270         HT  2021  TIP3    H1 22270   0.417000   1.008000
22271         HT  2021  TIP3    H2 22271   0.417000   1.008000
22272         OT  2022  TIP3   OH2 22272  -0.834000  15.999400
22273         HT  2022  TIP3    H1 22273   0.417000   1.008000
22274         HT  2022  TIP3    H2 22274   0.417000   1.008000
22275         OT  2023  TIP3   OH2 22275  -0.834000  15.999400
22276         HT  2023  TIP3    H1 22276   0.417000   1.008000
22277         HT  2023  TIP3    H2 22277   0.417000   1.008000
22278         OT  2024  TIP3   OH2 22278  -0.834000  15.999400
22279         HT  2024  TIP3    H1 22279   0.417000   1.008000
22280         HT  2024  TIP3    H2 22280   0.417000   1.008000
22281         OT  2025  TIP3   OH2 22281  -0.834000  15.999400
22282         HT  2025  TIP3    H1 22282   0.417000   1.008000
22283         HT  2025  TIP3    H2 22283   0.417000   1.008000
22284         OT  2026  TIP3   OH2 22284  -0.834000  15.999400
22285         HT  2026  TIP3    H1 22285   0.417000   1.008000
22286         HT  2026  TIP3    H2 22286   0.417000   1.008000
22287         OT  2027  TIP3   OH2 22287  -0.834000  15.999400
22288         HT  2027  TIP3    H1 22288   0.417000   1.008000
22289         HT  2027  TIP3    H2 22289   0.417000   1.008000
22290         OT  2028  TIP3   OH2 22290  -0.834000  15.999400
22291         HT  2028  TIP3    H1 22291   0.417000   1.008000
22292         HT  2028  TIP3    H2 22292   0.417000   1.008000
22293         OT  2029  TIP3   OH2 22293  -0.834000  15.999400
22294         HT  2029  TIP3    H1 22294   0.417000   1.008000
22295         HT  2029  TIP3    H2 22295   0.417000   1.008000
22296         OT  2030  TIP3   OH2 22296  -0.834000  15.999400
22297         HT  2030  TIP3    H1 22297   0.417000   1.008000
22298         HT  2030  TIP3    H2 22298   0.417000   1.008000
22299         OT  2031  TIP3   OH2 22299  -0.834000  15.999400
22300         HT  2031  TIP3    H1 22300   0.417000   1.008000
22301         HT  2031  TIP3    H2 22301   0.417000   1.008000
22302         OT  2032  TIP3   OH2 22302  -0.834000  15.999400
22303         HT  2032  TIP3    H1 22303   0.417000   1.008000
22304         HT  2032  TIP3    H2 22304   0.417000   1.008000
22305         OT  2033  TIP3   OH2 22305  -0.834000  15.999400
22306         HT  2033  TIP3    H1 22306   0.417000   1.008000
22307         HT  2033  TIP3    H2 22307   0.417000   1.008000
22308         OT  2034  TIP3   OH2 22308  -0.834000  15.999400
22309         HT  2034  TIP3    H1 22309   0.417000   1.008000
22310         HT  2034  TIP3    H2 22310   0.417000   1.008000
22311         OT  2035  TIP3   OH2 22311  -0.834000  15.999400
22312         HT  2035  TIP3    H1 22312   0.417000   1.008000
22313         HT  2035  TIP3    H2 22313   0.417000   1.008000
22314         OT  2036  TIP3   OH2 22314  -0.834000  15.999400
22315         HT  2036  TIP3    H1 22315   0.417000   1.008000
22316         HT  2036  TIP3    H2 22316   0.417000   1.008000
22317         OT  2037  TIP3   OH2 22317  -0.834000  15.999400
22318         HT  2037  TIP3    H1 22318   0.417000   1.008000
22319         HT  2037  TIP3    H2 22319   0.417000   1.008000
22320         OT  2038  TIP3   OH2 22320  -0.834000  15.999400
22321         HT  2038  TIP3    H1 22321   0.417000   1.008000
22322         HT  2038  TIP3    H2 22322   0.417000   1.008000
22323         OT  2039  TIP3   OH2 22323  -0.834000  15.999400
22324         HT  2039  TIP3    H1 22324   0.417000   1.008000
22325         HT  2039  TIP3    H2 22325   0.417000   1.008000
22326         OT  2040  TIP3   OH2 22326  -0.834000  15.999400
22327         HT  2040  TIP3    H1 22327   0.417000   1.008000
22328         HT  2040  TIP3    H2 22328   0.417000   1.008000
22329         OT  2041  TIP3   OH2 22329  -0.834000  15.999400
22330         HT  2041  TIP3    H1 22330   0.417000   1.008000
22331         HT  2041  TIP3    H2 22331   0.417000   1.008000
22332         OT  2042  TIP3   OH2 22332  -0.834000  15.999400
22333         HT  2042  TIP3    H1 22333   0.417000   1.008000
22334         HT  2042  TIP3    H2 22334   0.417000   1.008000
22335         OT  2043  TIP3   OH2 22335  -0.834000  15.999400
22336         HT  2043  TIP3    H1 22336   0.417000   1.008000
22337         HT  2043  TIP3    H2 22337   0.417000   1.008000
22338         OT  2044  TIP3   OH2 22338  -0.834000  15.999400
22339         HT  2044  TIP3    H1 22339   0.417000   1.008000
22340         HT  2044  TIP3    H2 22340   0.417000   1.008000
22341         OT  2045  TIP3   OH2 22341  -0.834000  15.999400
22342         HT  2045  TIP3    H1 22342   0.417000   1.008000
22343         HT  2045  TIP3    H2 22343   0.417000   1.008000
22344         OT  2046  TIP3   OH2 22344  -0.834000  15.999400
22345         HT  2046  TIP3    H1 22345   0.417000   1.008000
22346         HT  2046  TIP3    H2 22346   0.417000   1.008000
22347         OT  2047  TIP3   OH2 22347  -0.834000  15.999400
22348         HT  2047  TIP3    H1 22348   0.417000   1.008000
22349         HT  2047  TIP3    H2 22349   0.417000   1.008000
22350         OT  2048  TIP3   OH2 22350  -0.834000  15.999400
22351         HT  2048  TIP3    H1 22351   0.417000   1.008000
22352         HT  2048  TIP3    H2 22352   0.417000   1.008000
22353         OT  2049  TIP3   OH2 22353  -0.834000  15.999400
22354         HT  2049  TIP3    H1 22354   0.417000   1.008000
22355         HT  2049  TIP3    H2 22355   0.417000   1.008000
22356         OT  2050  TIP3   OH2 22356  -0.834000  15.999400
22357         HT  2050  TIP3    H1 22357   0.417000   1.008000
22358         HT  2050  TIP3    H2 22358   0.417000   1.008000
22359         OT  2051  TIP3   OH2 22359  -0.834000  15.999400
22360         HT  2051  TIP3    H1 22360   0.417000   1.008000
22361         HT  2051  TIP3    H2 22361   0.417000   1.008000
22362         OT  2052  TIP3   OH2 22362  -0.834000  15.999400
22363         HT  2052  TIP3    H1 22363   0.417000   1.008000
22364         HT  2052  TIP3    H2 22364   0.417000   1.008000
22365         OT  2053  TIP3   OH2 22365  -0.834000  15.999400
22366         HT  2053  TIP3    H1 22366   0.417000   1.008000
22367         HT  2053  TIP3    H2 22367   0.417000   1.008000
22368         OT  2054  TIP3   OH2 22368  -0.834000  15.999400
22369         HT  2054  TIP3    H1 22369   0.417000   1.008000
22370         HT  2054  TIP3    H2 22370   0.417000   1.008000
22371         OT  2055  TIP3   OH2 22371  -0.834000  15.999400
22372         HT  2055  TIP3    H1 22372   0.417000   1.008000
22373         HT  2055  TIP3    H2 22373   0.417000   1.008000
22374         OT  2056  TIP3   OH2 22374  -0.834000  15.999400
22375         HT  2056  TIP3    H1 22375   0.417000   1.008000
22376         HT  2056  TIP3    H2 22376   0.417000   1.008000
22377         OT  2057  TIP3   OH2 22377  -0.834000  15.999400
22378         HT  2057  TIP3    H1 22378   0.417000   1.008000
22379         HT  2057  TIP3    H2 22379   0.417000   1.008000
22380         OT  2058  TIP3   OH2 22380  -0.834000  15.999400
22381         HT  2058  TIP3    H1 22381   0.417000   1.008000
22382         HT  2058  TIP3    H2 22382   0.417000   1.008000
22383         OT  2059  TIP3   OH2 22383  -0.834000  15.999400
22384         HT  2059  TIP3    H1 22384   0.417000   1.008000
22385         HT  2059  TIP3    H2 22385   0.417000   1.008000
22386         OT  2060  TIP3   OH2 22386  -0.834000  15.999400
22387         HT  2060  TIP3    H1 22387   0.417000   1.008000
22388         HT  2060  TIP3    H2 22388   0.417000   1.008000
22389         OT  2061  TIP3   OH2 22389  -0.834000  15.999400
22390         HT  2061  TIP3    H1 22390   0.417000   1.008000
22391         HT  2061  TIP3    H2 22391   0.417000   1.008000
22392         OT  2062  TIP3   OH2 22392  -0.834000  15.999400
22393         HT  2062  TIP3    H1 22393   0.417000   1.008000
22394         HT  2062  TIP3    H2 22394   0.417000   1.008000
22395         OT  2063  TIP3   OH2 22395  -0.834000  15.999400
22396         HT  2063  TIP3    H1 22396   0.417000   1.008000
22397         HT  2063  TIP3    H2 22397   0.417000   1.008000
22398         OT  2064  TIP3   OH2 22398  -0.834000  15.999400
22399         HT  2064  TIP3    H1 22399   0.417000   1.008000
22400         HT  2064  TIP3    H2 22400   0.417000   1.008000
22401         OT  2065  TIP3   OH2 22401  -0.834000  15.999400
22402         HT  2065  TIP3    H1 22402   0.417000   1.008000
22403         HT  2065  TIP3    H2 22403   0.417000   1.008000
22404         OT  2066  TIP3   OH2 22404  -0.834000  15.999400
22405         HT  2066  TIP3    H1 22405   0.417000   1.008000
22406         HT  2066  TIP3    H2 22406   0.417000   1.008000
22407         OT  2067  TIP3   OH2 22407  -0.834000  15.999400
22408         HT  2067  TIP3    H1 22408   0.417000   1.008000
22409         HT  2067  TIP3    H2 22409   0.417000   1.008000
22410         OT  2068  TIP3   OH2 22410  -0.834000  15.999400
22411         HT  2068  TIP3    H1 22411   0.417000   1.008000
22412         HT  2068  TIP3    H2 22412   0.417000   1.008000
22413         OT  2069  TIP3   OH2 22413  -0.834000  15.999400
22414         HT  2069  TIP3    H1 22414   0.417000   1.008000
22415         HT  2069  TIP3    H2 22415   0.417000   1.008000
22416         OT  2070  TIP3   OH2 22416  -0.834000  15.999400
22417         HT  2070  TIP3    H1 22417   0.417000   1.008000
22418         HT  2070  TIP3    H2 22418   0.417000   1.008000
22419         OT  2071  TIP3   OH2 22419  -0.834000  15.999400
22420         HT  2071  TIP3    H1 22420   0.417000   1.008000
22421         HT  2071  TIP3    H2 22421   0.417000   1.008000
22422         OT  2072  TIP3   OH2 22422  -0.834000  15.999400
22423         HT  2072  TIP3    H1 22423   0.417000   1.008000
22424         HT  2072  TIP3    H2 22424   0.417000   1.008000
22425         OT  2073  TIP3   OH2 22425  -0.834000  15.999400
22426         HT  2073  TIP3    H1 22426   0.417000   1.008000
22427         HT  2073  TIP3    H2 22427   0.417000   1.008000
22428         OT  2074  TIP3   OH2 22428  -0.834000  15.999400
22429         HT  2074  TIP3    H1 22429   0.417000   1.008000
22430         HT  2074  TIP3    H2 22430   0.417000   1.008000
22431         OT  2075  TIP3   OH2 22431  -0.834000  15.999400
22432         HT  2075  TIP3    H1 22432   0.417000   1.008000
22433         HT  2075  TIP3    H2 22433   0.417000   1.008000
22434         OT  2076  TIP3   OH2 22434  -0.834000  15.999400
22435         HT  2076  TIP3    H1 22435   0.417000   1.008000
22436         HT  2076  TIP3    H2 22436   0.417000   1.008000
22437         OT  2077  TIP3   OH2 22437  -0.834000  15.999400
22438         HT  2077  TIP3    H1 22438   0.417000   1.008000
22439         HT  2077  TIP3    H2 22439   0.417000   1.008000
22440         OT  2078  TIP3   OH2 22440  -0.834000  15.999400
22441         HT  2078  TIP3    H1 22441   0.417000   1.008000
22442         HT  2078  TIP3    H2 22442   0.417000   1.008000
22443         OT  2079  TIP3   OH2 22443  -0.834000  15.999400
22444         HT  2079  TIP3    H1 22444   0.417000   1.008000
22445         HT  2079  TIP3    H2 22445   0.417000   1.008000
22446         OT  2080  TIP3   OH2 22446  -0.834000  15.999400
22447         HT  2080  TIP3    H1 22447   0.417000   1.008000
22448         HT  2080  TIP3    H2 22448   0.417000   1.008000
22449         OT  2081  TIP3   OH2 22449  -0.834000  15.999400
22450         HT  2081  TIP3    H1 22450   0.417000   1.008000
22451         HT  2081  TIP3    H2 22451   0.417000   1.008000
22452         OT  2082  TIP3   OH2 22452  -0.834000  15.999400
22453         HT  2082  TIP3    H1 22453   0.417000   1.008000
22454         HT  2082  TIP3    H2 22454   0.417000   1.008000
22455         OT  2083  TIP3   OH2 22455  -0.834000  15.999400
22456         HT  2083  TIP3    H1 22456   0.417000   1.008000
22457         HT  2083  TIP3    H2 22457   0.417000   1.008000
22458         OT  2084  TIP3   OH2 22458  -0.834000  15.999400
22459         HT  2084  TIP3    H1 22459   0.417000   1.008000
22460         HT  2084  TIP3    H2 22460   0.417000   1.008000
22461         OT  2085  TIP3   OH2 22461  -0.834000  15.999400
22462         HT  2085  TIP3    H1 22462   0.417000   1.008000
22463         HT  2085  TIP3    H2 22463   0.417000   1.008000
22464         OT  2086  TIP3   OH2 22464  -0.834000  15.999400
22465         HT  2086  TIP3    H1 22465   0.417000   1.008000
22466         HT  2086  TIP3    H2 22466   0.417000   1.008000
22467         OT  2087  TIP3   OH2 22467  -0.834000  15.999400
22468         HT  2087  TIP3    H1 22468   0.417000   1.008000
22469         HT  2087  TIP3    H2 22469   0.417000   1.008000
22470         OT  2088  TIP3   OH2 22470  -0.834000  15.999400
22471         HT  2088  TIP3    H1 22471   0.417000   1.008000
22472         HT  2088  TIP3    H2 22472   0.417000   1.008000
22473         OT  2089  TIP3   OH2 22473  -0.834000  15.999400
22474         HT  2089  TIP3    H1 22474   0.417000   1.008000
22475         HT  2089  TIP3    H2 22475   0.417000   1.008000
22476         OT  2090  TIP3   OH2 22476  -0.834000  15.999400
22477         HT  2090  TIP3    H1 22477   0.417000   1.008000
22478         HT  2090  TIP3    H2 22478   0.417000   1.008000
22479         OT  2091  TIP3   OH2 22479  -0.834000  15.999400
22480         HT  2091  TIP3    H1 22480   0.417000   1.008000
22481         HT  2091  TIP3    H2 22481   0.417000   1.008000
22482         OT  2092  TIP3   OH2 22482  -0.834000  15.999400
22483         HT  2092  TIP3    H1 22483   0.417000   1.008000
22484         HT  2092  TIP3    H2 22484   0.417000   1.008000
22485         OT  2093  TIP3   OH2 22485  -0.834000  15.999400
22486         HT  2093  TIP3    H1 22486   0.417000   1.008000
22487         HT  2093  TIP3    H2 22487   0.417000   1.008000
22488         OT  2094  TIP3   OH2 22488  -0.834000  15.999400
22489         HT  2094  TIP3    H1 22489   0.417000   1.008000
22490         HT  2094  TIP3    H2 22490   0.417000   1.008000
22491         OT  2095  TIP3   OH2 22491  -0.834000  15.999400
22492         HT  2095  TIP3    H1 22492   0.417000   1.008000
22493         HT  2095  TIP3    H2 22493   0.417000   1.008000
22494         OT  2096  TIP3   OH2 22494  -0.834000  15.999400
22495         HT  2096  TIP3    H1 22495   0.417000   1.008000
22496         HT  2096  TIP3    H2 22496   0.417000   1.008000
22497         OT  2097  TIP3   OH2 22497  -0.834000  15.999400
22498         HT  2097  TIP3    H1 22498   0.417000   1.008000
22499         HT  2097  TIP3    H2 22499   0.417000   1.008000
22500         OT  2098  TIP3   OH2 22500  -0.834000  15.999400
22501         HT  2098  TIP3    H1 22501   0.417000   1.008000
22502         HT  2098  TIP3    H2 22502   0.417000   1.008000
22503         OT  2099  TIP3   OH2 22503  -0.834000  15.999400
22504         HT  2099  TIP3    H1 22504   0.417000   1.008000
22505         HT  2099  TIP3    H2 22505   0.417000   1.008000
22506         OT  2100  TIP3   OH2 22506  -0.834000  15.999400
22507         HT  2100  TIP3    H1 22507   0.417000   1.008000
22508         HT  2100  TIP3    H2 22508   0.417000   1.008000
22509         OT  2101  TIP3   OH2 22509  -0.834000  15.999400
22510         HT  2101  TIP3    H1 22510   0.417000   1.008000
22511         HT  2101  TIP3    H2 22511   0.417000   1.008000
22512         OT  2102  TIP3   OH2 22512  -0.834000  15.999400
22513         HT  2102  TIP3    H1 22513   0.417000   1.008000
22514         HT  2102  TIP3    H2 22514   0.417000   1.008000
22515         OT  2103  TIP3   OH2 22515  -0.834000  15.999400
22516         HT  2103  TIP3    H1 22516   0.417000   1.008000
22517         HT  2103  TIP3    H2 22517   0.417000   1.008000
22518         OT  2104  TIP3   OH2 22518  -0.834000  15.999400
22519         HT  2104  TIP3    H1 22519   0.417000   1.008000
22520         HT  2104  TIP3    H2 22520   0.417000   1.008000
22521         OT  2105  TIP3   OH2 22521  -0.834000  15.999400
22522         HT  2105  TIP3    H1 22522   0.417000   1.008000
22523         HT  2105  TIP3    H2 22523   0.417000   1.008000
22524         OT  2106  TIP3   OH2 22524  -0.834000  15.999400
22525         HT  2106  TIP3    H1 22525   0.417000   1.008000
22526         HT  2106  TIP3    H2 22526   0.417000   1.008000
22527         OT  2107  TIP3   OH2 22527  -0.834000  15.999400
22528         HT  2107  TIP3    H1 22528   0.417000   1.008000
22529         HT  2107  TIP3    H2 22529   0.417000   1.008000
22530         OT  2108  TIP3   OH2 22530  -0.834000  15.999400
22531         HT  2108  TIP3    H1 22531   0.417000   1.008000
22532         HT  2108  TIP3    H2 22532   0.417000   1.008000
22533         OT  2109  TIP3   OH2 22533  -0.834000  15.999400
22534         HT  2109  TIP3    H1 22534   0.417000   1.008000
22535         HT  2109  TIP3    H2 22535   0.417000   1.008000
22536         OT  2110  TIP3   OH2 22536  -0.834000  15.999400
22537         HT  2110  TIP3    H1 22537   0.417000   1.008000
22538         HT  2110  TIP3    H2 22538   0.417000   1.008000
22539         OT  2111  TIP3   OH2 22539  -0.834000  15.999400
22540         HT  2111  TIP3    H1 22540   0.417000   1.008000
22541         HT  2111  TIP3    H2 22541   0.417000   1.008000
22542         OT  2112  TIP3   OH2 22542  -0.834000  15.999400
22543         HT  2112  TIP3    H1 22543   0.417000   1.008000
22544         HT  2112  TIP3    H2 22544   0.417000   1.008000
22545         OT  2113  TIP3   OH2 22545  -0.834000  15.999400
22546         HT  2113  TIP3    H1 22546   0.417000   1.008000
22547         HT  2113  TIP3    H2 22547   0.417000   1.008000
22548         OT  2114  TIP3   OH2 22548  -0.834000  15.999400
22549         HT  2114  TIP3    H1 22549   0.417000   1.008000
22550         HT  2114  TIP3    H2 22550   0.417000   1.008000
22551         OT  2115  TIP3   OH2 22551  -0.834000  15.999400
22552         HT  2115  TIP3    H1 22552   0.417000   1.008000
22553         HT  2115  TIP3    H2 22553   0.417000   1.008000
22554         OT  2116  TIP3   OH2 22554  -0.834000  15.999400
22555         HT  2116  TIP3    H1 22555   0.417000   1.008000
22556         HT  2116  TIP3    H2 22556   0.417000   1.008000
22557         OT  2117  TIP3   OH2 22557  -0.834000  15.999400
22558         HT  2117  TIP3    H1 22558   0.417000   1.008000
22559         HT  2117  TIP3    H2 22559   0.417000   1.008000
22560         OT  2118  TIP3   OH2 22560  -0.834000  15.999400
22561         HT  2118  TIP3    H1 22561   0.417000   1.008000
22562         HT  2118  TIP3    H2 22562   0.417000   1.008000
22563         OT  2119  TIP3   OH2 22563  -0.834000  15.999400
22564         HT  2119  TIP3    H1 22564   0.417000   1.008000
22565         HT  2119  TIP3    H2 22565   0.417000   1.008000
22566         OT  2120  TIP3   OH2 22566  -0.834000  15.999400
22567         HT  2120  TIP3    H1 22567   0.417000   1.008000
22568         HT  2120  TIP3    H2 22568   0.417000   1.008000
22569         OT  2121  TIP3   OH2 22569  -0.834000  15.999400
22570         HT  2121  TIP3    H1 22570   0.417000   1.008000
22571         HT  2121  TIP3    H2 22571   0.417000   1.008000
22572         OT  2122  TIP3   OH2 22572  -0.834000  15.999400
22573         HT  2122  TIP3    H1 22573   0.417000   1.008000
22574         HT  2122  TIP3    H2 22574   0.417000   1.008000
22575         OT  2123  TIP3   OH2 22575  -0.834000  15.999400
22576         HT  2123  TIP3    H1 22576   0.417000   1.008000
22577         HT  2123  TIP3    H2 22577   0.417000   1.008000
22578         OT  2124  TIP3   OH2 22578  -0.834000  15.999400
22579         HT  2124  TIP3    H1 22579   0.417000   1.008000
22580         HT  2124  TIP3    H2 22580   0.417000   1.008000
22581         OT  2125  TIP3   OH2 22581  -0.834000  15.999400
22582         HT  2125  TIP3    H1 22582   0.417000   1.008000
22583         HT  2125  TIP3    H2 22583   0.417000   1.008000
22584         OT  2126  TIP3   OH2 22584  -0.834000  15.999400
22585         HT  2126  TIP3    H1 22585   0.417000   1.008000
22586         HT  2126  TIP3    H2 22586   0.417000   1.008000
22587         OT  2127  TIP3   OH2 22587  -0.834000  15.999400
22588         HT  2127  TIP3    H1 22588   0.417000   1.008000
22589         HT  2127  TIP3    H2 22589   0.417000   1.008000
22590         OT  2128  TIP3   OH2 22590  -0.834000  15.999400
22591         HT  2128  TIP3    H1 22591   0.417000   1.008000
22592         HT  2128  TIP3    H2 22592   0.417000   1.008000
22593         OT  2129  TIP3   OH2 22593  -0.834000  15.999400
22594         HT  2129  TIP3    H1 22594   0.417000   1.008000
22595         HT  2129  TIP3    H2 22595   0.417000   1.008000
22596         OT  2130  TIP3   OH2 22596  -0.834000  15.999400
22597         HT  2130  TIP3    H1 22597   0.417000   1.008000
22598         HT  2130  TIP3    H2 22598   0.417000   1.008000
22599         OT  2131  TIP3   OH2 22599  -0.834000  15.999400
22600         HT  2131  TIP3    H1 22600   0.417000   1.008000
22601         HT  2131  TIP3    H2 22601   0.417000   1.008000
22602         OT  2132  TIP3   OH2 22602  -0.834000  15.999400
22603         HT  2132  TIP3    H1 22603   0.417000   1.008000
22604         HT  2132  TIP3    H2 22604   0.417000   1.008000
22605         OT  2133  TIP3   OH2 22605  -0.834000  15.999400
22606         HT  2133  TIP3    H1 22606   0.417000   1.008000
22607         HT  2133  TIP3    H2 22607   0.417000   1.008000
22608         OT  2134  TIP3   OH2 22608  -0.834000  15.999400
22609         HT  2134  TIP3    H1 22609   0.417000   1.008000
22610         HT  2134  TIP3    H2 22610   0.417000   1.008000
22611         OT  2135  TIP3   OH2 22611  -0.834000  15.999400
22612         HT  2135  TIP3    H1 22612   0.417000   1.008000
22613         HT  2135  TIP3    H2 22613   0.417000   1.008000
22614         OT  2136  TIP3   OH2 22614  -0.834000  15.999400
22615         HT  2136  TIP3    H1 22615   0.417000   1.008000
22616         HT  2136  TIP3    H2 22616   0.417000   1.008000
22617         OT  2137  TIP3   OH2 22617  -0.834000  15.999400
22618         HT  2137  TIP3    H1 22618   0.417000   1.008000
22619         HT  2137  TIP3    H2 22619   0.417000   1.008000
22620         OT  2138  TIP3   OH2 22620  -0.834000  15.999400
22621         HT  2138  TIP3    H1 22621   0.417000   1.008000
22622         HT  2138  TIP3    H2 22622   0.417000   1.008000
22623         OT  2139  TIP3   OH2 22623  -0.834000  15.999400
22624         HT  2139  TIP3    H1 22624   0.417000   1.008000
22625         HT  2139  TIP3    H2 22625   0.417000   1.008000
22626         OT  2140  TIP3   OH2 22626  -0.834000  15.999400
22627         HT  2140  TIP3    H1 22627   0.417000   1.008000
22628         HT  2140  TIP3    H2 22628   0.417000   1.008000
22629         OT  2141  TIP3   OH2 22629  -0.834000  15.999400
22630         HT  2141  TIP3    H1 22630   0.417000   1.008000
22631         HT  2141  TIP3    H2 22631   0.417000   1.008000
22632         OT  2142  TIP3   OH2 22632  -0.834000  15.999400
22633         HT  2142  TIP3    H1 22633   0.417000   1.008000
22634         HT  2142  TIP3    H2 22634   0.417000   1.008000
22635         OT  2143  TIP3   OH2 22635  -0.834000  15.999400
22636         HT  2143  TIP3    H1 22636   0.417000   1.008000
22637         HT  2143  TIP3    H2 22637   0.417000   1.008000
22638         OT  2144  TIP3   OH2 22638  -0.834000  15.999400
22639         HT  2144  TIP3    H1 22639   0.417000   1.008000
22640         HT  2144  TIP3    H2 22640   0.417000   1.008000
22641         OT  2145  TIP3   OH2 22641  -0.834000  15.999400
22642         HT  2145  TIP3    H1 22642   0.417000   1.008000
22643         HT  2145  TIP3    H2 22643   0.417000   1.008000
22644         OT  2146  TIP3   OH2 22644  -0.834000  15.999400
22645         HT  2146  TIP3    H1 22645   0.417000   1.008000
22646         HT  2146  TIP3    H2 22646   0.417000   1.008000
22647         OT  2147  TIP3   OH2 22647  -0.834000  15.999400
22648         HT  2147  TIP3    H1 22648   0.417000   1.008000
22649         HT  2147  TIP3    H2 22649   0.417000   1.008000
22650         OT  2148  TIP3   OH2 22650  -0.834000  15.999400
22651         HT  2148  TIP3    H1 22651   0.417000   1.008000
22652         HT  2148  TIP3    H2 22652   0.417000   1.008000
22653         OT  2149  TIP3   OH2 22653  -0.834000  15.999400
22654         HT  2149  TIP3    H1 22654   0.417000   1.008000
22655         HT  2149  TIP3    H2 22655   0.417000   1.008000
22656         OT  2150  TIP3   OH2 22656  -0.834000  15.999400
22657         HT  2150  TIP3    H1 22657   0.417000   1.008000
22658         HT  2150  TIP3    H2 22658   0.417000   1.008000
22659         OT  2151  TIP3   OH2 22659  -0.834000  15.999400
22660         HT  2151  TIP3    H1 22660   0.417000   1.008000
22661         HT  2151  TIP3    H2 22661   0.417000   1.008000
22662         OT  2152  TIP3   OH2 22662  -0.834000  15.999400
22663         HT  2152  TIP3    H1 22663   0.417000   1.008000
22664         HT  2152  TIP3    H2 22664   0.417000   1.008000
22665         OT  2153  TIP3   OH2 22665  -0.834000  15.999400
22666         HT  2153  TIP3    H1 22666   0.417000   1.008000
22667         HT  2153  TIP3    H2 22667   0.417000   1.008000
22668         OT  2154  TIP3   OH2 22668  -0.834000  15.999400
22669         HT  2154  TIP3    H1 22669   0.417000   1.008000
22670         HT  2154  TIP3    H2 22670   0.417000   1.008000
22671         OT  2155  TIP3   OH2 22671  -0.834000  15.999400
22672         HT  2155  TIP3    H1 22672   0.417000   1.008000
22673         HT  2155  TIP3    H2 22673   0.417000   1.008000
22674         OT  2156  TIP3   OH2 22674  -0.834000  15.999400
22675         HT  2156  TIP3    H1 22675   0.417000   1.008000
22676         HT  2156  TIP3    H2 22676   0.417000   1.008000
22677         OT  2157  TIP3   OH2 22677  -0.834000  15.999400
22678         HT  2157  TIP3    H1 22678   0.417000   1.008000
22679         HT  2157  TIP3    H2 22679   0.417000   1.008000
22680         OT  2158  TIP3   OH2 22680  -0.834000  15.999400
22681         HT  2158  TIP3    H1 22681   0.417000   1.008000
22682         HT  2158  TIP3    H2 22682   0.417000   1.008000
22683         OT  2159  TIP3   OH2 22683  -0.834000  15.999400
22684         HT  2159  TIP3    H1 22684   0.417000   1.008000
22685         HT  2159  TIP3    H2 22685   0.417000   1.008000
22686         OT  2160  TIP3   OH2 22686  -0.834000  15.999400
22687         HT  2160  TIP3    H1 22687   0.417000   1.008000
22688         HT  2160  TIP3    H2 22688   0.417000   1.008000
22689         OT  2161  TIP3   OH2 22689  -0.834000  15.999400
22690         HT  2161  TIP3    H1 22690   0.417000   1.008000
22691         HT  2161  TIP3    H2 22691   0.417000   1.008000
22692         OT  2162  TIP3   OH2 22692  -0.834000  15.999400
22693         HT  2162  TIP3    H1 22693   0.417000   1.008000
22694         HT  2162  TIP3    H2 22694   0.417000   1.008000
22695         OT  2163  TIP3   OH2 22695  -0.834000  15.999400
22696         HT  2163  TIP3    H1 22696   0.417000   1.008000
22697         HT  2163  TIP3    H2 22697   0.417000   1.008000
22698         OT  2164  TIP3   OH2 22698  -0.834000  15.999400
22699         HT  2164  TIP3    H1 22699   0.417000   1.008000
22700         HT  2164  TIP3    H2 22700   0.417000   1.008000
22701         OT  2165  TIP3   OH2 22701  -0.834000  15.999400
22702         HT  2165  TIP3    H1 22702   0.417000   1.008000
22703         HT  2165  TIP3    H2 22703   0.417000   1.008000
22704         OT  2166  TIP3   OH2 22704  -0.834000  15.999400
22705         HT  2166  TIP3    H1 22705   0.417000   1.008000
22706         HT  2166  TIP3    H2 22706   0.417000   1.008000
22707         OT  2167  TIP3   OH2 22707  -0.834000  15.999400
22708         HT  2167  TIP3    H1 22708   0.417000   1.008000
22709         HT  2167  TIP3    H2 22709   0.417000   1.008000
22710         OT  2168  TIP3   OH2 22710  -0.834000  15.999400
22711         HT  2168  TIP3    H1 22711   0.417000   1.008000
22712         HT  2168  TIP3    H2 22712   0.417000   1.008000
22713         OT  2169  TIP3   OH2 22713  -0.834000  15.999400
22714         HT  2169  TIP3    H1 22714   0.417000   1.008000
22715         HT  2169  TIP3    H2 22715   0.417000   1.008000
22716         OT  2170  TIP3   OH2 22716  -0.834000  15.999400
22717         HT  2170  TIP3    H1 22717   0.417000   1.008000
22718         HT  2170  TIP3    H2 22718   0.417000   1.008000
22719         OT  2171  TIP3   OH2 22719  -0.834000  15.999400
22720         HT  2171  TIP3    H1 22720   0.417000   1.008000
22721         HT  2171  TIP3    H2 22721   0.417000   1.008000
22722         OT  2172  TIP3   OH2 22722  -0.834000  15.999400
22723         HT  2172  TIP3    H1 22723   0.417000   1.008000
22724         HT  2172  TIP3    H2 22724   0.417000   1.008000
22725         OT  2173  TIP3   OH2 22725  -0.834000  15.999400
22726         HT  2173  TIP3    H1 22726   0.417000   1.008000
22727         HT  2173  TIP3    H2 22727   0.417000   1.008000
22728         OT  2174  TIP3   OH2 22728  -0.834000  15.999400
22729         HT  2174  TIP3    H1 22729   0.417000   1.008000
22730         HT  2174  TIP3    H2 22730   0.417000   1.008000
22731         OT  2175  TIP3   OH2 22731  -0.834000  15.999400
22732         HT  2175  TIP3    H1 22732   0.417000   1.008000
22733         HT  2175  TIP3    H2 22733   0.417000   1.008000
22734         OT  2176  TIP3   OH2 22734  -0.834000  15.999400
22735         HT  2176  TIP3    H1 22735   0.417000   1.008000
22736         HT  2176  TIP3    H2 22736   0.417000   1.008000
22737         OT  2177  TIP3   OH2 22737  -0.834000  15.999400
22738         HT  2177  TIP3    H1 22738   0.417000   1.008000
22739         HT  2177  TIP3    H2 22739   0.417000   1.008000
22740         OT  2178  TIP3   OH2 22740  -0.834000  15.999400
22741         HT  2178  TIP3    H1 22741   0.417000   1.008000
22742         HT  2178  TIP3    H2 22742   0.417000   1.008000
22743         OT  2179  TIP3   OH2 22743  -0.834000  15.999400
22744         HT  2179  TIP3    H1 22744   0.417000   1.008000
22745         HT  2179  TIP3    H2 22745   0.417000   1.008000
22746         OT  2180  TIP3   OH2 22746  -0.834000  15.999400
22747         HT  2180  TIP3    H1 22747   0.417000   1.008000
22748         HT  2180  TIP3    H2 22748   0.417000   1.008000
22749         OT  2181  TIP3   OH2 22749  -0.834000  15.999400
22750         HT  2181  TIP3    H1 22750   0.417000   1.008000
22751         HT  2181  TIP3    H2 22751   0.417000   1.008000
22752         OT  2182  TIP3   OH2 22752  -0.834000  15.999400
22753         HT  2182  TIP3    H1 22753   0.417000   1.008000
22754         HT  2182  TIP3    H2 22754   0.417000   1.008000
22755         OT  2183  TIP3   OH2 22755  -0.834000  15.999400
22756         HT  2183  TIP3    H1 22756   0.417000   1.008000
22757         HT  2183  TIP3    H2 22757   0.417000   1.008000
22758         OT  2184  TIP3   OH2 22758  -0.834000  15.999400
22759         HT  2184  TIP3    H1 22759   0.417000   1.008000
22760         HT  2184  TIP3    H2 22760   0.417000   1.008000
22761         OT  2185  TIP3   OH2 22761  -0.834000  15.999400
22762         HT  2185  TIP3    H1 22762   0.417000   1.008000
22763         HT  2185  TIP3    H2 22763   0.417000   1.008000
22764         OT  2186  TIP3   OH2 22764  -0.834000  15.999400
22765         HT  2186  TIP3    H1 22765   0.417000   1.008000
22766         HT  2186  TIP3    H2 22766   0.417000   1.008000
22767         OT  2187  TIP3   OH2 22767  -0.834000  15.999400
22768         HT  2187  TIP3    H1 22768   0.417000   1.008000
22769         HT  2187  TIP3    H2 22769   0.417000   1.008000
22770         OT  2188  TIP3   OH2 22770  -0.834000  15.999400
22771         HT  2188  TIP3    H1 22771   0.417000   1.008000
22772         HT  2188  TIP3    H2 22772   0.417000   1.008000
22773         OT  2189  TIP3   OH2 22773  -0.834000  15.999400
22774         HT  2189  TIP3    H1 22774   0.417000   1.008000
22775         HT  2189  TIP3    H2 22775   0.417000   1.008000
22776         OT  2190  TIP3   OH2 22776  -0.834000  15.999400
22777         HT  2190  TIP3    H1 22777   0.417000   1.008000
22778         HT  2190  TIP3    H2 22778   0.417000   1.008000
22779         OT  2191  TIP3   OH2 22779  -0.834000  15.999400
22780         HT  2191  TIP3    H1 22780   0.417000   1.008000
22781         HT  2191  TIP3    H2 22781   0.417000   1.008000
22782         OT  2192  TIP3   OH2 22782  -0.834000  15.999400
22783         HT  2192  TIP3    H1 22783   0.417000   1.008000
22784         HT  2192  TIP3    H2 22784   0.417000   1.008000
22785         OT  2193  TIP3   OH2 22785  -0.834000  15.999400
22786         HT  2193  TIP3    H1 22786   0.417000   1.008000
22787         HT  2193  TIP3    H2 22787   0.417000   1.008000
22788         OT  2194  TIP3   OH2 22788  -0.834000  15.999400
22789         HT  2194  TIP3    H1 22789   0.417000   1.008000
22790         HT  2194  TIP3    H2 22790   0.417000   1.008000
22791         OT  2195  TIP3   OH2 22791  -0.834000  15.999400
22792         HT  2195  TIP3    H1 22792   0.417000   1.008000
22793         HT  2195  TIP3    H2 22793   0.417000   1.008000
22794         OT  2196  TIP3   OH2 22794  -0.834000  15.999400
22795         HT  2196  TIP3    H1 22795   0.417000   1.008000
22796         HT  2196  TIP3    H2 22796   0.417000   1.008000
22797         OT  2197  TIP3   OH2 22797  -0.834000  15.999400
22798         HT  2197  TIP3    H1 22798   0.417000   1.008000
22799         HT  2197  TIP3    H2 22799   0.417000   1.008000
22800         OT  2198  TIP3   OH2 22800  -0.834000  15.999400
22801         HT  2198  TIP3    H1 22801   0.417000   1.008000
22802         HT  2198  TIP3    H2 22802   0.417000   1.008000
22803         OT  2199  TIP3   OH2 22803  -0.834000  15.999400
22804         HT  2199  TIP3    H1 22804   0.417000   1.008000
22805         HT  2199  TIP3    H2 22805   0.417000   1.008000
22806         OT  2200  TIP3   OH2 22806  -0.834000  15.999400
22807         HT  2200  TIP3    H1 22807   0.417000   1.008000
22808         HT  2200  TIP3    H2 22808   0.417000   1.008000
22809         OT  2201  TIP3   OH2 22809  -0.834000  15.999400
22810         HT  2201  TIP3    H1 22810   0.417000   1.008000
22811         HT  2201  TIP3    H2 22811   0.417000   1.008000
22812         OT  2202  TIP3   OH2 22812  -0.834000  15.999400
22813         HT  2202  TIP3    H1 22813   0.417000   1.008000
22814         HT  2202  TIP3    H2 22814   0.417000   1.008000
22815         OT  2203  TIP3   OH2 22815  -0.834000  15.999400
22816         HT  2203  TIP3    H1 22816   0.417000   1.008000
22817         HT  2203  TIP3    H2 22817   0.417000   1.008000
22818         OT  2204  TIP3   OH2 22818  -0.834000  15.999400
22819         HT  2204  TIP3    H1 22819   0.417000   1.008000
22820         HT  2204  TIP3    H2 22820   0.417000   1.008000
22821         OT  2205  TIP3   OH2 22821  -0.834000  15.999400
22822         HT  2205  TIP3    H1 22822   0.417000   1.008000
22823         HT  2205  TIP3    H2 22823   0.417000   1.008000
22824         OT  2206  TIP3   OH2 22824  -0.834000  15.999400
22825         HT  2206  TIP3    H1 22825   0.417000   1.008000
22826         HT  2206  TIP3    H2 22826   0.417000   1.008000
22827         OT  2207  TIP3   OH2 22827  -0.834000  15.999400
22828         HT  2207  TIP3    H1 22828   0.417000   1.008000
22829         HT  2207  TIP3    H2 22829   0.417000   1.008000
22830         OT  2208  TIP3   OH2 22830  -0.834000  15.999400
22831         HT  2208  TIP3    H1 22831   0.417000   1.008000
22832         HT  2208  TIP3    H2 22832   0.417000   1.008000
22833         OT  2209  TIP3   OH2 22833  -0.834000  15.999400
22834         HT  2209  TIP3    H1 22834   0.417000   1.008000
22835         HT  2209  TIP3    H2 22835   0.417000   1.008000
22836         OT  2210  TIP3   OH2 22836  -0.834000  15.999400
22837         HT  2210  TIP3    H1 22837   0.417000   1.008000
22838         HT  2210  TIP3    H2 22838   0.417000   1.008000
22839         OT  2211  TIP3   OH2 22839  -0.834000  15.999400
22840         HT  2211  TIP3    H1 22840   0.417000   1.008000
22841         HT  2211  TIP3    H2 22841   0.417000   1.008000
22842         OT  2212  TIP3   OH2 22842  -0.834000  15.999400
22843         HT  2212  TIP3    H1 22843   0.417000   1.008000
22844         HT  2212  TIP3    H2 22844   0.417000   1.008000
22845         OT  2213  TIP3   OH2 22845  -0.834000  15.999400
22846         HT  2213  TIP3    H1 22846   0.417000   1.008000
22847         HT  2213  TIP3    H2 22847   0.417000   1.008000
22848         OT  2214  TIP3   OH2 22848  -0.834000  15.999400
22849         HT  2214  TIP3    H1 22849   0.417000   1.008000
22850         HT  2214  TIP3    H2 22850   0.417000   1.008000
22851         OT  2215  TIP3   OH2 22851  -0.834000  15.999400
22852         HT  2215  TIP3    H1 22852   0.417000   1.008000
22853         HT  2215  TIP3    H2 22853   0.417000   1.008000
22854         OT  2216  TIP3   OH2 22854  -0.834000  15.999400
22855         HT  2216  TIP3    H1 22855   0.417000   1.008000
22856         HT  2216  TIP3    H2 22856   0.417000   1.008000
22857         OT  2217  TIP3   OH2 22857  -0.834000  15.999400
22858         HT  2217  TIP3    H1 22858   0.417000   1.008000
22859         HT  2217  TIP3    H2 22859   0.417000   1.008000
22860         OT  2218  TIP3   OH2 22860  -0.834000  15.999400
22861         HT  2218  TIP3    H1 22861   0.417000   1.008000
22862         HT  2218  TIP3    H2 22862   0.417000   1.008000
22863         OT  2219  TIP3   OH2 22863  -0.834000  15.999400
22864         HT  2219  TIP3    H1 22864   0.417000   1.008000
22865         HT  2219  TIP3    H2 22865   0.417000   1.008000
22866         OT  2220  TIP3   OH2 22866  -0.834000  15.999400
22867         HT  2220  TIP3    H1 22867   0.417000   1.008000
22868         HT  2220  TIP3    H2 22868   0.417000   1.008000
22869         OT  2221  TIP3   OH2 22869  -0.834000  15.999400
22870         HT  2221  TIP3    H1 22870   0.417000   1.008000
22871         HT  2221  TIP3    H2 22871   0.417000   1.008000
22872         OT  2222  TIP3   OH2 22872  -0.834000  15.999400
22873         HT  2222  TIP3    H1 22873   0.417000   1.008000
22874         HT  2222  TIP3    H2 22874   0.417000   1.008000
22875         OT  2223  TIP3   OH2 22875  -0.834000  15.999400
22876         HT  2223  TIP3    H1 22876   0.417000   1.008000
22877         HT  2223  TIP3    H2 22877   0.417000   1.008000
22878         OT  2224  TIP3   OH2 22878  -0.834000  15.999400
22879         HT  2224  TIP3    H1 22879   0.417000   1.008000
22880         HT  2224  TIP3    H2 22880   0.417000   1.008000
22881         OT  2225  TIP3   OH2 22881  -0.834000  15.999400
22882         HT  2225  TIP3    H1 22882   0.417000   1.008000
22883         HT  2225  TIP3    H2 22883   0.417000   1.008000
22884         OT  2226  TIP3   OH2 22884  -0.834000  15.999400
22885         HT  2226  TIP3    H1 22885   0.417000   1.008000
22886         HT  2226  TIP3    H2 22886   0.417000   1.008000
22887         OT  2227  TIP3   OH2 22887  -0.834000  15.999400
22888         HT  2227  TIP3    H1 22888   0.417000   1.008000
22889         HT  2227  TIP3    H2 22889   0.417000   1.008000
22890         OT  2228  TIP3   OH2 22890  -0.834000  15.999400
22891         HT  2228  TIP3    H1 22891   0.417000   1.008000
22892         HT  2228  TIP3    H2 22892   0.417000   1.008000
22893         OT  2229  TIP3   OH2 22893  -0.834000  15.999400
22894         HT  2229  TIP3    H1 22894   0.417000   1.008000
22895         HT  2229  TIP3    H2 22895   0.417000   1.008000
22896         OT  2230  TIP3   OH2 22896  -0.834000  15.999400
22897         HT  2230  TIP3    H1 22897   0.417000   1.008000
22898         HT  2230  TIP3    H2 22898   0.417000   1.008000
22899         OT  2231  TIP3   OH2 22899  -0.834000  15.999400
22900         HT  2231  TIP3    H1 22900   0.417000   1.008000
22901         HT  2231  TIP3    H2 22901   0.417000   1.008000
22902         OT  2232  TIP3   OH2 22902  -0.834000  15.999400
22903         HT  2232  TIP3    H1 22903   0.417000   1.008000
22904         HT  2232  TIP3    H2 22904   0.417000   1.008000
22905         OT  2233  TIP3   OH2 22905  -0.834000  15.999400
22906         HT  2233  TIP3    H1 22906   0.417000   1.008000
22907         HT  2233  TIP3    H2 22907   0.417000   1.008000
22908         OT  2234  TIP3   OH2 22908  -0.834000  15.999400
22909         HT  2234  TIP3    H1 22909   0.417000   1.008000
22910         HT  2234  TIP3    H2 22910   0.417000   1.008000
22911         OT  2235  TIP3   OH2 22911  -0.834000  15.999400
22912         HT  2235  TIP3    H1 22912   0.417000   1.008000
22913         HT  2235  TIP3    H2 22913   0.417000   1.008000
22914         OT  2236  TIP3   OH2 22914  -0.834000  15.999400
22915         HT  2236  TIP3    H1 22915   0.417000   1.008000
22916         HT  2236  TIP3    H2 22916   0.417000   1.008000
22917         OT  2237  TIP3   OH2 22917  -0.834000  15.999400
22918         HT  2237  TIP3    H1 22918   0.417000   1.008000
22919         HT  2237  TIP3    H2 22919   0.417000   1.008000
22920         OT  2238  TIP3   OH2 22920  -0.834000  15.999400
22921         HT  2238  TIP3    H1 22921   0.417000   1.008000
22922         HT  2238  TIP3    H2 22922   0.417000   1.008000
22923         OT  2239  TIP3   OH2 22923  -0.834000  15.999400
22924         HT  2239  TIP3    H1 22924   0.417000   1.008000
22925         HT  2239  TIP3    H2 22925   0.417000   1.008000
22926         OT  2240  TIP3   OH2 22926  -0.834000  15.999400
22927         HT  2240  TIP3    H1 22927   0.417000   1.008000
22928         HT  2240  TIP3    H2 22928   0.417000   1.008000
22929         OT  2241  TIP3   OH2 22929  -0.834000  15.999400
22930         HT  2241  TIP3    H1 22930   0.417000   1.008000
22931         HT  2241  TIP3    H2 22931   0.417000   1.008000
22932         OT  2242  TIP3   OH2 22932  -0.834000  15.999400
22933         HT  2242  TIP3    H1 22933   0.417000   1.008000
22934         HT  2242  TIP3    H2 22934   0.417000   1.008000
22935         OT  2243  TIP3   OH2 22935  -0.834000  15.999400
22936         HT  2243  TIP3    H1 22936   0.417000   1.008000
22937         HT  2243  TIP3    H2 22937   0.417000   1.008000
22938         OT  2244  TIP3   OH2 22938  -0.834000  15.999400
22939         HT  2244  TIP3    H1 22939   0.417000   1.008000
22940         HT  2244  TIP3    H2 22940   0.417000   1.008000
22941         OT  2245  TIP3   OH2 22941  -0.834000  15.999400
22942         HT  2245  TIP3    H1 22942   0.417000   1.008000
22943         HT  2245  TIP3    H2 22943   0.417000   1.008000
22944         OT  2246  TIP3   OH2 22944  -0.834000  15.999400
22945         HT  2246  TIP3    H1 22945   0.417000   1.008000
22946         HT  2246  TIP3    H2 22946   0.417000   1.008000
22947         OT  2247  TIP3   OH2 22947  -0.834000  15.999400
22948         HT  2247  TIP3    H1 22948   0.417000   1.008000
22949         HT  2247  TIP3    H2 22949   0.417000   1.008000
22950         OT  2248  TIP3   OH2 22950  -0.834000  15.999400
22951         HT  2248  TIP3    H1 22951   0.417000   1.008000
22952         HT  2248  TIP3    H2 22952   0.417000   1.008000
22953         OT  2249  TIP3   OH2 22953  -0.834000  15.999400
22954         HT  2249  TIP3    H1 22954   0.417000   1.008000
22955         HT  2249  TIP3    H2 22955   0.417000   1.008000
22956         OT  2250  TIP3   OH2 22956  -0.834000  15.999400
22957         HT  2250  TIP3    H1 22957   0.417000   1.008000
22958         HT  2250  TIP3    H2 22958   0.417000   1.008000
22959         OT  2251  TIP3   OH2 22959  -0.834000  15.999400
22960         HT  2251  TIP3    H1 22960   0.417000   1.008000
22961         HT  2251  TIP3    H2 22961   0.417000   1.008000
22962         OT  2252  TIP3   OH2 22962  -0.834000  15.999400
22963         HT  2252  TIP3    H1 22963   0.417000   1.008000
22964         HT  2252  TIP3    H2 22964   0.417000   1.008000
22965         OT  2253  TIP3   OH2 22965  -0.834000  15.999400
22966         HT  2253  TIP3    H1 22966   0.417000   1.008000
22967         HT  2253  TIP3    H2 22967   0.417000   1.008000
22968         OT  2254  TIP3   OH2 22968  -0.834000  15.999400
22969         HT  2254  TIP3    H1 22969   0.417000   1.008000
22970         HT  2254  TIP3    H2 22970   0.417000   1.008000
22971         OT  2255  TIP3   OH2 22971  -0.834000  15.999400
22972         HT  2255  TIP3    H1 22972   0.417000   1.008000
22973         HT  2255  TIP3    H2 22973   0.417000   1.008000
22974         OT  2256  TIP3   OH2 22974  -0.834000  15.999400
22975         HT  2256  TIP3    H1 22975   0.417000   1.008000
22976         HT  2256  TIP3    H2 22976   0.417000   1.008000
22977         OT  2257  TIP3   OH2 22977  -0.834000  15.999400
22978         HT  2257  TIP3    H1 22978   0.417000   1.008000
22979         HT  2257  TIP3    H2 22979   0.417000   1.008000
22980         OT  2258  TIP3   OH2 22980  -0.834000  15.999400
22981         HT  2258  TIP3    H1 22981   0.417000   1.008000
22982         HT  2258  TIP3    H2 22982   0.417000   1.008000
22983         OT  2259  TIP3   OH2 22983  -0.834000  15.999400
22984         HT  2259  TIP3    H1 22984   0.417000   1.008000
22985         HT  2259  TIP3    H2 22985   0.417000   1.008000
22986         OT  2260  TIP3   OH2 22986  -0.834000  15.999400
22987         HT  2260  TIP3    H1 22987   0.417000   1.008000
22988         HT  2260  TIP3    H2 22988   0.417000   1.008000
22989         OT  2261  TIP3   OH2 22989  -0.834000  15.999400
22990         HT  2261  TIP3    H1 22990   0.417000   1.008000
22991         HT  2261  TIP3    H2 22991   0.417000   1.008000
22992         OT  2262  TIP3   OH2 22992  -0.834000  15.999400
22993         HT  2262  TIP3    H1 22993   0.417000   1.008000
22994         HT  2262  TIP3    H2 22994   0.417000   1.008000
22995         OT  2263  TIP3   OH2 22995  -0.834000  15.999400
22996         HT  2263  TIP3    H1 22996   0.417000   1.008000
22997         HT  2263  TIP3    H2 22997   0.417000   1.008000
22998         OT  2264  TIP3   OH2 22998  -0.834000  15.999400
22999         HT  2264  TIP3    H1 22999   0.417000   1.008000
23000         HT  2264  TIP3    H2 23000   0.417000   1.008000
23001         OT  2265  TIP3   OH2 23001  -0.834000  15.999400
23002         HT  2265  TIP3    H1 23002   0.417000   1.008000
23003         HT  2265  TIP3    H2 23003   0.417000   1.008000
23004         OT  2266  TIP3   OH2 23004  -0.834000  15.999400
23005         HT  2266  TIP3    H1 23005   0.417000   1.008000
23006         HT  2266  TIP3    H2 23006   0.417000   1.008000
23007         OT  2267  TIP3   OH2 23007  -0.834000  15.999400
23008         HT  2267  TIP3    H1 23008   0.417000   1.008000
23009         HT  2267  TIP3    H2 23009   0.417000   1.008000
23010         OT  2268  TIP3   OH2 23010  -0.834000  15.999400
23011         HT  2268  TIP3    H1 23011   0.417000   1.008000
23012         HT  2268  TIP3    H2 23012   0.417000   1.008000
23013         OT  2269  TIP3   OH2 23013  -0.834000  15.999400
23014         HT  2269  TIP3    H1 23014   0.417000   1.008000
23015         HT  2269  TIP3    H2 23015   0.417000   1.008000
23016         OT  2270  TIP3   OH2 23016  -0.834000  15.999400
23017         HT  2270  TIP3    H1 23017   0.417000   1.008000
23018         HT  2270  TIP3    H2 23018   0.417000   1.008000
23019         OT  2271  TIP3   OH2 23019  -0.834000  15.999400
23020         HT  2271  TIP3    H1 23020   0.417000   1.008000
23021         HT  2271  TIP3    H2 23021   0.417000   1.008000
23022         OT  2272  TIP3   OH2 23022  -0.834000  15.999400
23023         HT  2272  TIP3    H1 23023   0.417000   1.008000
23024         HT  2272  TIP3    H2 23024   0.417000   1.008000
23025         OT  2273  TIP3   OH2 23025  -0.834000  15.999400
23026         HT  2273  TIP3    H1 23026   0.417000   1.008000
23027         HT  2273  TIP3    H2 23027   0.417000   1.008000
23028         OT  2274  TIP3   OH2 23028  -0.834000  15.999400
23029         HT  2274  TIP3    H1 23029   0.417000   1.008000
23030         HT  2274  TIP3    H2 23030   0.417000   1.008000
23031         OT  2275  TIP3   OH2 23031  -0.834000  15.999400
23032         HT  2275  TIP3    H1 23032   0.417000   1.008000
23033         HT  2275  TIP3    H2 23033   0.417000   1.008000
23034         OT  2276  TIP3   OH2 23034  -0.834000  15.999400
23035         HT  2276  TIP3    H1 23035   0.417000   1.008000
23036         HT  2276  TIP3    H2 23036   0.417000   1.008000
23037         OT  2277  TIP3   OH2 23037  -0.834000  15.999400
23038         HT  2277  TIP3    H1 23038   0.417000   1.008000
23039         HT  2277  TIP3    H2 23039   0.417000   1.008000
23040         OT  2278  TIP3   OH2 23040  -0.834000  15.999400
23041         HT  2278  TIP3    H1 23041   0.417000   1.008000
23042         HT  2278  TIP3    H2 23042   0.417000   1.008000
23043         OT  2279  TIP3   OH2 23043  -0.834000  15.999400
23044         HT  2279  TIP3    H1 23044   0.417000   1.008000
23045         HT  2279  TIP3    H2 23045   0.417000   1.008000
23046         OT  2280  TIP3   OH2 23046  -0.834000  15.999400
23047         HT  2280  TIP3    H1 23047   0.417000   1.008000
23048         HT  2280  TIP3    H2 23048   0.417000   1.008000
23049         OT  2281  TIP3   OH2 23049  -0.834000  15.999400
23050         HT  2281  TIP3    H1 23050   0.417000   1.008000
23051         HT  2281  TIP3    H2 23051   0.417000   1.008000
23052         OT  2282  TIP3   OH2 23052  -0.834000  15.999400
23053         HT  2282  TIP3    H1 23053   0.417000   1.008000
23054         HT  2282  TIP3    H2 23054   0.417000   1.008000
23055         OT  2283  TIP3   OH2 23055  -0.834000  15.999400
23056         HT  2283  TIP3    H1 23056   0.417000   1.008000
23057         HT  2283  TIP3    H2 23057   0.417000   1.008000
23058         OT  2284  TIP3   OH2 23058  -0.834000  15.999400
23059         HT  2284  TIP3    H1 23059   0.417000   1.008000
23060         HT  2284  TIP3    H2 23060   0.417000   1.008000
23061         OT  2285  TIP3   OH2 23061  -0.834000  15.999400
23062         HT  2285  TIP3    H1 23062   0.417000   1.008000
23063         HT  2285  TIP3    H2 23063   0.417000   1.008000
23064         OT  2286  TIP3   OH2 23064  -0.834000  15.999400
23065         HT  2286  TIP3    H1 23065   0.417000   1.008000
23066         HT  2286  TIP3    H2 23066   0.417000   1.008000
23067         OT  2287  TIP3   OH2 23067  -0.834000  15.999400
23068         HT  2287  TIP3    H1 23068   0.417000   1.008000
23069         HT  2287  TIP3    H2 23069   0.417000   1.008000
23070         OT  2288  TIP3   OH2 23070  -0.834000  15.999400
23071         HT  2288  TIP3    H1 23071   0.417000   1.008000
23072         HT  2288  TIP3    H2 23072   0.417000   1.008000
23073         OT  2289  TIP3   OH2 23073  -0.834000  15.999400
23074         HT  2289  TIP3    H1 23074   0.417000   1.008000
23075         HT  2289  TIP3    H2 23075   0.417000   1.008000
23076         OT  2290  TIP3   OH2 23076  -0.834000  15.999400
23077         HT  2290  TIP3    H1 23077   0.417000   1.008000
23078         HT  2290  TIP3    H2 23078   0.417000   1.008000
23079         OT  2291  TIP3   OH2 23079  -0.834000  15.999400
23080         HT  2291  TIP3    H1 23080   0.417000   1.008000
23081         HT  2291  TIP3    H2 23081   0.417000   1.008000
23082         OT  2292  TIP3   OH2 23082  -0.834000  15.999400
23083         HT  2292  TIP3    H1 23083   0.417000   1.008000
23084         HT  2292  TIP3    H2 23084   0.417000   1.008000
23085         OT  2293  TIP3   OH2 23085  -0.834000  15.999400
23086         HT  2293  TIP3    H1 23086   0.417000   1.008000
23087         HT  2293  TIP3    H2 23087   0.417000   1.008000
23088         OT  2294  TIP3   OH2 23088  -0.834000  15.999400
23089         HT  2294  TIP3    H1 23089   0.417000   1.008000
23090         HT  2294  TIP3    H2 23090   0.417000   1.008000
23091         OT  2295  TIP3   OH2 23091  -0.834000  15.999400
23092         HT  2295  TIP3    H1 23092   0.417000   1.008000
23093         HT  2295  TIP3    H2 23093   0.417000   1.008000
23094         OT  2296  TIP3   OH2 23094  -0.834000  15.999400
23095         HT  2296  TIP3    H1 23095   0.417000   1.008000
23096         HT  2296  TIP3    H2 23096   0.417000   1.008000
23097         OT  2297  TIP3   OH2 23097  -0.834000  15.999400
23098         HT  2297  TIP3    H1 23098   0.417000   1.008000
23099         HT  2297  TIP3    H2 23099   0.417000   1.008000
23100         OT  2298  TIP3   OH2 23100  -0.834000  15.999400
23101         HT  2298  TIP3    H1 23101   0.417000   1.008000
23102         HT  2298  TIP3    H2 23102   0.417000   1.008000
23103         OT  2299  TIP3   OH2 23103  -0.834000  15.999400
23104         HT  2299  TIP3    H1 23104   0.417000   1.008000
23105         HT  2299  TIP3    H2 23105   0.417000   1.008000
23106         OT  2300  TIP3   OH2 23106  -0.834000  15.999400
23107         HT  2300  TIP3    H1 23107   0.417000   1.008000
23108         HT  2300  TIP3    H2 23108   0.417000   1.008000
23109         OT  2301  TIP3   OH2 23109  -0.834000  15.999400
23110         HT  2301  TIP3    H1 23110   0.417000   1.008000
23111         HT  2301  TIP3    H2 23111   0.417000   1.008000
23112         OT  2302  TIP3   OH2 23112  -0.834000  15.999400
23113         HT  2302  TIP3    H1 23113   0.417000   1.008000
23114         HT  2302  TIP3    H2 23114   0.417000   1.008000
23115         OT  2303  TIP3   OH2 23115  -0.834000  15.999400
23116         HT  2303  TIP3    H1 23116   0.417000   1.008000
23117         HT  2303  TIP3    H2 23117   0.417000   1.008000
23118         OT  2304  TIP3   OH2 23118  -0.834000  15.999400
23119         HT  2304  TIP3    H1 23119   0.417000   1.008000
23120         HT  2304  TIP3    H2 23120   0.417000   1.008000
23121         OT  2305  TIP3   OH2 23121  -0.834000  15.999400
23122         HT  2305  TIP3    H1 23122   0.417000   1.008000
23123         HT  2305  TIP3    H2 23123   0.417000   1.008000
23124         OT  2306  TIP3   OH2 23124  -0.834000  15.999400
23125         HT  2306  TIP3    H1 23125   0.417000   1.008000
23126         HT  2306  TIP3    H2 23126   0.417000   1.008000
23127         OT  2307  TIP3   OH2 23127  -0.834000  15.999400
23128         HT  2307  TIP3    H1 23128   0.417000   1.008000
23129         HT  2307  TIP3    H2 23129   0.417000   1.008000
23130         OT  2308  TIP3   OH2 23130  -0.834000  15.999400
23131         HT  2308  TIP3    H1 23131   0.417000   1.008000
23132         HT  2308  TIP3    H2 23132   0.417000   1.008000
23133         OT  2309  TIP3   OH2 23133  -0.834000  15.999400
23134         HT  2309  TIP3    H1 23134   0.417000   1.008000
23135         HT  2309  TIP3    H2 23135   0.417000   1.008000
23136         OT  2310  TIP3   OH2 23136  -0.834000  15.999400
23137         HT  2310  TIP3    H1 23137   0.417000   1.008000
23138         HT  2310  TIP3    H2 23138   0.417000   1.008000
23139         OT  2311  TIP3   OH2 23139  -0.834000  15.999400
23140         HT  2311  TIP3    H1 23140   0.417000   1.008000
23141         HT  2311  TIP3    H2 23141   0.417000   1.008000
23142         OT  2312  TIP3   OH2 23142  -0.834000  15.999400
23143         HT  2312  TIP3    H1 23143   0.417000   1.008000
23144         HT  2312  TIP3    H2 23144   0.417000   1.008000
23145         OT  2313  TIP3   OH2 23145  -0.834000  15.999400
23146         HT  2313  TIP3    H1 23146   0.417000   1.008000
23147         HT  2313  TIP3    H2 23147   0.417000   1.008000
23148         OT  2314  TIP3   OH2 23148  -0.834000  15.999400
23149         HT  2314  TIP3    H1 23149   0.417000   1.008000
23150         HT  2314  TIP3    H2 23150   0.417000   1.008000
23151         OT  2315  TIP3   OH2 23151  -0.834000  15.999400
23152         HT  2315  TIP3    H1 23152   0.417000   1.008000
23153         HT  2315  TIP3    H2 23153   0.417000   1.008000
23154         OT  2316  TIP3   OH2 23154  -0.834000  15.999400
23155         HT  2316  TIP3    H1 23155   0.417000   1.008000
23156         HT  2316  TIP3    H2 23156   0.417000   1.008000
23157         OT  2317  TIP3   OH2 23157  -0.834000  15.999400
23158         HT  2317  TIP3    H1 23158   0.417000   1.008000
23159         HT  2317  TIP3    H2 23159   0.417000   1.008000
23160         OT  2318  TIP3   OH2 23160  -0.834000  15.999400
23161         HT  2318  TIP3    H1 23161   0.417000   1.008000
23162         HT  2318  TIP3    H2 23162   0.417000   1.008000
23163         OT  2319  TIP3   OH2 23163  -0.834000  15.999400
23164         HT  2319  TIP3    H1 23164   0.417000   1.008000
23165         HT  2319  TIP3    H2 23165   0.417000   1.008000
23166         OT  2320  TIP3   OH2 23166  -0.834000  15.999400
23167         HT  2320  TIP3    H1 23167   0.417000   1.008000
23168         HT  2320  TIP3    H2 23168   0.417000   1.008000
23169         OT  2321  TIP3   OH2 23169  -0.834000  15.999400
23170         HT  2321  TIP3    H1 23170   0.417000   1.008000
23171         HT  2321  TIP3    H2 23171   0.417000   1.008000
23172         OT  2322  TIP3   OH2 23172  -0.834000  15.999400
23173         HT  2322  TIP3    H1 23173   0.417000   1.008000
23174         HT  2322  TIP3    H2 23174   0.417000   1.008000
23175         OT  2323  TIP3   OH2 23175  -0.834000  15.999400
23176         HT  2323  TIP3    H1 23176   0.417000   1.008000
23177         HT  2323  TIP3    H2 23177   0.417000   1.008000
23178         OT  2324  TIP3   OH2 23178  -0.834000  15.999400
23179         HT  2324  TIP3    H1 23179   0.417000   1.008000
23180         HT  2324  TIP3    H2 23180   0.417000   1.008000
23181         OT  2325  TIP3   OH2 23181  -0.834000  15.999400
23182         HT  2325  TIP3    H1 23182   0.417000   1.008000
23183         HT  2325  TIP3    H2 23183   0.417000   1.008000
23184         OT  2326  TIP3   OH2 23184  -0.834000  15.999400
23185         HT  2326  TIP3    H1 23185   0.417000   1.008000
23186         HT  2326  TIP3    H2 23186   0.417000   1.008000
23187         OT  2327  TIP3   OH2 23187  -0.834000  15.999400
23188         HT  2327  TIP3    H1 23188   0.417000   1.008000
23189         HT  2327  TIP3    H2 23189   0.417000   1.008000
23190         OT  2328  TIP3   OH2 23190  -0.834000  15.999400
23191         HT  2328  TIP3    H1 23191   0.417000   1.008000
23192         HT  2328  TIP3    H2 23192   0.417000   1.008000
23193         OT  2329  TIP3   OH2 23193  -0.834000  15.999400
23194         HT  2329  TIP3    H1 23194   0.417000   1.008000
23195         HT  2329  TIP3    H2 23195   0.417000   1.008000
23196         OT  2330  TIP3   OH2 23196  -0.834000  15.999400
23197         HT  2330  TIP3    H1 23197   0.417000   1.008000
23198         HT  2330  TIP3    H2 23198   0.417000   1.008000
23199         OT  2331  TIP3   OH2 23199  -0.834000  15.999400
23200         HT  2331  TIP3    H1 23200   0.417000   1.008000
23201         HT  2331  TIP3    H2 23201   0.417000   1.008000
23202         OT  2332  TIP3   OH2 23202  -0.834000  15.999400
23203         HT  2332  TIP3    H1 23203   0.417000   1.008000
23204         HT  2332  TIP3    H2 23204   0.417000   1.008000
23205         OT  2333  TIP3   OH2 23205  -0.834000  15.999400
23206         HT  2333  TIP3    H1 23206   0.417000   1.008000
23207         HT  2333  TIP3    H2 23207   0.417000   1.008000
23208         OT  2334  TIP3   OH2 23208  -0.834000  15.999400
23209         HT  2334  TIP3    H1 23209   0.417000   1.008000
23210         HT  2334  TIP3    H2 23210   0.417000   1.008000
23211         OT  2335  TIP3   OH2 23211  -0.834000  15.999400
23212         HT  2335  TIP3    H1 23212   0.417000   1.008000
23213         HT  2335  TIP3    H2 23213   0.417000   1.008000
23214         OT  2336  TIP3   OH2 23214  -0.834000  15.999400
23215         HT  2336  TIP3    H1 23215   0.417000   1.008000
23216         HT  2336  TIP3    H2 23216   0.417000   1.008000
23217         OT  2337  TIP3   OH2 23217  -0.834000  15.999400
23218         HT  2337  TIP3    H1 23218   0.417000   1.008000
23219         HT  2337  TIP3    H2 23219   0.417000   1.008000
23220         OT  2338  TIP3   OH2 23220  -0.834000  15.999400
23221         HT  2338  TIP3    H1 23221   0.417000   1.008000
23222         HT  2338  TIP3    H2 23222   0.417000   1.008000
23223         OT  2339  TIP3   OH2 23223  -0.834000  15.999400
23224         HT  2339  TIP3    H1 23224   0.417000   1.008000
23225         HT  2339  TIP3    H2 23225   0.417000   1.008000
23226         OT  2340  TIP3   OH2 23226  -0.834000  15.999400
23227         HT  2340  TIP3    H1 23227   0.417000   1.008000
23228         HT  2340  TIP3    H2 23228   0.417000   1.008000
23229         OT  2341  TIP3   OH2 23229  -0.834000  15.999400
23230         HT  2341  TIP3    H1 23230   0.417000   1.008000
23231         HT  2341  TIP3    H2 23231   0.417000   1.008000
23232         OT  2342  TIP3   OH2 23232  -0.834000  15.999400
23233         HT  2342  TIP3    H1 23233   0.417000   1.008000
23234         HT  2342  TIP3    H2 23234   0.417000   1.008000
23235         OT  2343  TIP3   OH2 23235  -0.834000  15.999400
23236         HT  2343  TIP3    H1 23236   0.417000   1.008000
23237         HT  2343  TIP3    H2 23237   0.417000   1.008000
23238         OT  2344  TIP3   OH2 23238  -0.834000  15.999400
23239         HT  2344  TIP3    H1 23239   0.417000   1.008000
23240         HT  2344  TIP3    H2 23240   0.417000   1.008000
23241         OT  2345  TIP3   OH2 23241  -0.834000  15.999400
23242         HT  2345  TIP3    H1 23242   0.417000   1.008000
23243         HT  2345  TIP3    H2 23243   0.417000   1.008000
23244         OT  2346  TIP3   OH2 23244  -0.834000  15.999400
23245         HT  2346  TIP3    H1 23245   0.417000   1.008000
23246         HT  2346  TIP3    H2 23246   0.417000   1.008000
23247         OT  2347  TIP3   OH2 23247  -0.834000  15.999400
23248         HT  2347  TIP3    H1 23248   0.417000   1.008000
23249         HT  2347  TIP3    H2 23249   0.417000   1.008000
23250         OT  2348  TIP3   OH2 23250  -0.834000  15.999400
23251         HT  2348  TIP3    H1 23251   0.417000   1.008000
23252         HT  2348  TIP3    H2 23252   0.417000   1.008000
23253         OT  2349  TIP3   OH2 23253  -0.834000  15.999400
23254         HT  2349  TIP3    H1 23254   0.417000   1.008000
23255         HT  2349  TIP3    H2 23255   0.417000   1.008000
23256         OT  2350  TIP3   OH2 23256  -0.834000  15.999400
23257         HT  2350  TIP3    H1 23257   0.417000   1.008000
23258         HT  2350  TIP3    H2 23258   0.417000   1.008000
23259         OT  2351  TIP3   OH2 23259  -0.834000  15.999400
23260         HT  2351  TIP3    H1 23260   0.417000   1.008000
23261         HT  2351  TIP3    H2 23261   0.417000   1.008000
23262         OT  2352  TIP3   OH2 23262  -0.834000  15.999400
23263         HT  2352  TIP3    H1 23263   0.417000   1.008000
23264         HT  2352  TIP3    H2 23264   0.417000   1.008000
23265         OT  2353  TIP3   OH2 23265  -0.834000  15.999400
23266         HT  2353  TIP3    H1 23266   0.417000   1.008000
23267         HT  2353  TIP3    H2 23267   0.417000   1.008000
23268         OT  2354  TIP3   OH2 23268  -0.834000  15.999400
23269         HT  2354  TIP3    H1 23269   0.417000   1.008000
23270         HT  2354  TIP3    H2 23270   0.417000   1.008000
23271         OT  2355  TIP3   OH2 23271  -0.834000  15.999400
23272         HT  2355  TIP3    H1 23272   0.417000   1.008000
23273         HT  2355  TIP3    H2 23273   0.417000   1.008000
23274         OT  2356  TIP3   OH2 23274  -0.834000  15.999400
23275         HT  2356  TIP3    H1 23275   0.417000   1.008000
23276         HT  2356  TIP3    H2 23276   0.417000   1.008000
23277         OT  2357  TIP3   OH2 23277  -0.834000  15.999400
23278         HT  2357  TIP3    H1 23278   0.417000   1.008000
23279         HT  2357  TIP3    H2 23279   0.417000   1.008000
23280         OT  2358  TIP3   OH2 23280  -0.834000  15.999400
23281         HT  2358  TIP3    H1 23281   0.417000   1.008000
23282         HT  2358  TIP3    H2 23282   0.417000   1.008000
23283         OT  2359  TIP3   OH2 23283  -0.834000  15.999400
23284         HT  2359  TIP3    H1 23284   0.417000   1.008000
23285         HT  2359  TIP3    H2 23285   0.417000   1.008000
23286         OT  2360  TIP3   OH2 23286  -0.834000  15.999400
23287         HT  2360  TIP3    H1 23287   0.417000   1.008000
23288         HT  2360  TIP3    H2 23288   0.417000   1.008000
23289         OT  2361  TIP3   OH2 23289  -0.834000  15.999400
23290         HT  2361  TIP3    H1 23290   0.417000   1.008000
23291         HT  2361  TIP3    H2 23291   0.417000   1.008000
23292         OT  2362  TIP3   OH2 23292  -0.834000  15.999400
23293         HT  2362  TIP3    H1 23293   0.417000   1.008000
23294         HT  2362  TIP3    H2 23294   0.417000   1.008000
23295         OT  2363  TIP3   OH2 23295  -0.834000  15.999400
23296         HT  2363  TIP3    H1 23296   0.417000   1.008000
23297         HT  2363  TIP3    H2 23297   0.417000   1.008000
23298         OT  2364  TIP3   OH2 23298  -0.834000  15.999400
23299         HT  2364  TIP3    H1 23299   0.417000   1.008000
23300         HT  2364  TIP3    H2 23300   0.417000   1.008000
23301         OT  2365  TIP3   OH2 23301  -0.834000  15.999400
23302         HT  2365  TIP3    H1 23302   0.417000   1.008000
23303         HT  2365  TIP3    H2 23303   0.417000   1.008000
23304         OT  2366  TIP3   OH2 23304  -0.834000  15.999400
23305         HT  2366  TIP3    H1 23305   0.417000   1.008000
23306         HT  2366  TIP3    H2 23306   0.417000   1.008000
23307         OT  2367  TIP3   OH2 23307  -0.834000  15.999400
23308         HT  2367  TIP3    H1 23308   0.417000   1.008000
23309         HT  2367  TIP3    H2 23309   0.417000   1.008000
23310         OT  2368  TIP3   OH2 23310  -0.834000  15.999400
23311         HT  2368  TIP3    H1 23311   0.417000   1.008000
23312         HT  2368  TIP3    H2 23312   0.417000   1.008000
23313         OT  2369  TIP3   OH2 23313  -0.834000  15.999400
23314         HT  2369  TIP3    H1 23314   0.417000   1.008000
23315         HT  2369  TIP3    H2 23315   0.417000   1.008000
23316         OT  2370  TIP3   OH2 23316  -0.834000  15.999400
23317         HT  2370  TIP3    H1 23317   0.417000   1.008000
23318         HT  2370  TIP3    H2 23318   0.417000   1.008000
23319         OT  2371  TIP3   OH2 23319  -0.834000  15.999400
23320         HT  2371  TIP3    H1 23320   0.417000   1.008000
23321         HT  2371  TIP3    H2 23321   0.417000   1.008000
23322         OT  2372  TIP3   OH2 23322  -0.834000  15.999400
23323         HT  2372  TIP3    H1 23323   0.417000   1.008000
23324         HT  2372  TIP3    H2 23324   0.417000   1.008000
23325         OT  2373  TIP3   OH2 23325  -0.834000  15.999400
23326         HT  2373  TIP3    H1 23326   0.417000   1.008000
23327         HT  2373  TIP3    H2 23327   0.417000   1.008000
23328         OT  2374  TIP3   OH2 23328  -0.834000  15.999400
23329         HT  2374  TIP3    H1 23329   0.417000   1.008000
23330         HT  2374  TIP3    H2 23330   0.417000   1.008000
23331         OT  2375  TIP3   OH2 23331  -0.834000  15.999400
23332         HT  2375  TIP3    H1 23332   0.417000   1.008000
23333         HT  2375  TIP3    H2 23333   0.417000   1.008000
23334         OT  2376  TIP3   OH2 23334  -0.834000  15.999400
23335         HT  2376  TIP3    H1 23335   0.417000   1.008000
23336         HT  2376  TIP3    H2 23336   0.417000   1.008000
23337         OT  2377  TIP3   OH2 23337  -0.834000  15.999400
23338         HT  2377  TIP3    H1 23338   0.417000   1.008000
23339         HT  2377  TIP3    H2 23339   0.417000   1.008000
23340         OT  2378  TIP3   OH2 23340  -0.834000  15.999400
23341         HT  2378  TIP3    H1 23341   0.417000   1.008000
23342         HT  2378  TIP3    H2 23342   0.417000   1.008000
23343         OT  2379  TIP3   OH2 23343  -0.834000  15.999400
23344         HT  2379  TIP3    H1 23344   0.417000   1.008000
23345         HT  2379  TIP3    H2 23345   0.417000   1.008000
23346         OT  2380  TIP3   OH2 23346  -0.834000  15.999400
23347         HT  2380  TIP3    H1 23347   0.417000   1.008000
23348         HT  2380  TIP3    H2 23348   0.417000   1.008000
23349         OT  2381  TIP3   OH2 23349  -0.834000  15.999400
23350         HT  2381  TIP3    H1 23350   0.417000   1.008000
23351         HT  2381  TIP3    H2 23351   0.417000   1.008000
23352         OT  2382  TIP3   OH2 23352  -0.834000  15.999400
23353         HT  2382  TIP3    H1 23353   0.417000   1.008000
23354         HT  2382  TIP3    H2 23354   0.417000   1.008000
23355         OT  2383  TIP3   OH2 23355  -0.834000  15.999400
23356         HT  2383  TIP3    H1 23356   0.417000   1.008000
23357         HT  2383  TIP3    H2 23357   0.417000   1.008000
23358         OT  2384  TIP3   OH2 23358  -0.834000  15.999400
23359         HT  2384  TIP3    H1 23359   0.417000   1.008000
23360         HT  2384  TIP3    H2 23360   0.417000   1.008000
23361         OT  2385  TIP3   OH2 23361  -0.834000  15.999400
23362         HT  2385  TIP3    H1 23362   0.417000   1.008000
23363         HT  2385  TIP3    H2 23363   0.417000   1.008000
23364         OT  2386  TIP3   OH2 23364  -0.834000  15.999400
23365         HT  2386  TIP3    H1 23365   0.417000   1.008000
23366         HT  2386  TIP3    H2 23366   0.417000   1.008000
23367         OT  2387  TIP3   OH2 23367  -0.834000  15.999400
23368         HT  2387  TIP3    H1 23368   0.417000   1.008000
23369         HT  2387  TIP3    H2 23369   0.417000   1.008000
23370         OT  2388  TIP3   OH2 23370  -0.834000  15.999400
23371         HT  2388  TIP3    H1 23371   0.417000   1.008000
23372         HT  2388  TIP3    H2 23372   0.417000   1.008000
23373         OT  2389  TIP3   OH2 23373  -0.834000  15.999400
23374         HT  2389  TIP3    H1 23374   0.417000   1.008000
23375         HT  2389  TIP3    H2 23375   0.417000   1.008000
23376         OT  2390  TIP3   OH2 23376  -0.834000  15.999400
23377         HT  2390  TIP3    H1 23377   0.417000   1.008000
23378         HT  2390  TIP3    H2 23378   0.417000   1.008000
23379         OT  2391  TIP3   OH2 23379  -0.834000  15.999400
23380         HT  2391  TIP3    H1 23380   0.417000   1.008000
23381         HT  2391  TIP3    H2 23381   0.417000   1.008000
23382         OT  2392  TIP3   OH2 23382  -0.834000  15.999400
23383         HT  2392  TIP3    H1 23383   0.417000   1.008000
23384         HT  2392  TIP3    H2 23384   0.417000   1.008000
23385         OT  2393  TIP3   OH2 23385  -0.834000  15.999400
23386         HT  2393  TIP3    H1 23386   0.417000   1.008000
23387         HT  2393  TIP3    H2 23387   0.417000   1.008000
23388         OT  2394  TIP3   OH2 23388  -0.834000  15.999400
23389         HT  2394  TIP3    H1 23389   0.417000   1.008000
23390         HT  2394  TIP3    H2 23390   0.417000   1.008000
23391         OT  2395  TIP3   OH2 23391  -0.834000  15.999400
23392         HT  2395  TIP3    H1 23392   0.417000   1.008000
23393         HT  2395  TIP3    H2 23393   0.417000   1.008000
23394         OT  2396  TIP3   OH2 23394  -0.834000  15.999400
23395         HT  2396  TIP3    H1 23395   0.417000   1.008000
23396         HT  2396  TIP3    H2 23396   0.417000   1.008000
23397         OT  2397  TIP3   OH2 23397  -0.834000  15.999400
23398         HT  2397  TIP3    H1 23398   0.417000   1.008000
23399         HT  2397  TIP3    H2 23399   0.417000   1.008000
23400         OT  2398  TIP3   OH2 23400  -0.834000  15.999400
23401         HT  2398  TIP3    H1 23401   0.417000   1.008000
23402         HT  2398  TIP3    H2 23402   0.417000   1.008000
23403         OT  2399  TIP3   OH2 23403  -0.834000  15.999400
23404         HT  2399  TIP3    H1 23404   0.417000   1.008000
23405         HT  2399  TIP3    H2 23405   0.417000   1.008000
23406         OT  2400  TIP3   OH2 23406  -0.834000  15.999400
23407         HT  2400  TIP3    H1 23407   0.417000   1.008000
23408         HT  2400  TIP3    H2 23408   0.417000   1.008000
23409         OT  2401  TIP3   OH2 23409  -0.834000  15.999400
23410         HT  2401  TIP3    H1 23410   0.417000   1.008000
23411         HT  2401  TIP3    H2 23411   0.417000   1.008000
23412         OT  2402  TIP3   OH2 23412  -0.834000  15.999400
23413         HT  2402  TIP3    H1 23413   0.417000   1.008000
23414         HT  2402  TIP3    H2 23414   0.417000   1.008000
23415         OT  2403  TIP3   OH2 23415  -0.834000  15.999400
23416         HT  2403  TIP3    H1 23416   0.417000   1.008000
23417         HT  2403  TIP3    H2 23417   0.417000   1.008000
23418         OT  2404  TIP3   OH2 23418  -0.834000  15.999400
23419         HT  2404  TIP3    H1 23419   0.417000   1.008000
23420         HT  2404  TIP3    H2 23420   0.417000   1.008000
23421         OT  2405  TIP3   OH2 23421  -0.834000  15.999400
23422         HT  2405  TIP3    H1 23422   0.417000   1.008000
23423         HT  2405  TIP3    H2 23423   0.417000   1.008000
23424         OT  2406  TIP3   OH2 23424  -0.834000  15.999400
23425         HT  2406  TIP3    H1 23425   0.417000   1.008000
23426         HT  2406  TIP3    H2 23426   0.417000   1.008000
23427         OT  2407  TIP3   OH2 23427  -0.834000  15.999400
23428         HT  2407  TIP3    H1 23428   0.417000   1.008000
23429         HT  2407  TIP3    H2 23429   0.417000   1.008000
23430         OT  2408  TIP3   OH2 23430  -0.834000  15.999400
23431         HT  2408  TIP3    H1 23431   0.417000   1.008000
23432         HT  2408  TIP3    H2 23432   0.417000   1.008000
23433         OT  2409  TIP3   OH2 23433  -0.834000  15.999400
23434         HT  2409  TIP3    H1 23434   0.417000   1.008000
23435         HT  2409  TIP3    H2 23435   0.417000   1.008000
23436         OT  2410  TIP3   OH2 23436  -0.834000  15.999400
23437         HT  2410  TIP3    H1 23437   0.417000   1.008000
23438         HT  2410  TIP3    H2 23438   0.417000   1.008000
23439         OT  2411  TIP3   OH2 23439  -0.834000  15.999400
23440         HT  2411  TIP3    H1 23440   0.417000   1.008000
23441         HT  2411  TIP3    H2 23441   0.417000   1.008000
23442         OT  2412  TIP3   OH2 23442  -0.834000  15.999400
23443         HT  2412  TIP3    H1 23443   0.417000   1.008000
23444         HT  2412  TIP3    H2 23444   0.417000   1.008000
23445         OT  2413  TIP3   OH2 23445  -0.834000  15.999400
23446         HT  2413  TIP3    H1 23446   0.417000   1.008000
23447         HT  2413  TIP3    H2 23447   0.417000   1.008000
23448         OT  2414  TIP3   OH2 23448  -0.834000  15.999400
23449         HT  2414  TIP3    H1 23449   0.417000   1.008000
23450         HT  2414  TIP3    H2 23450   0.417000   1.008000
23451         OT  2415  TIP3   OH2 23451  -0.834000  15.999400
23452         HT  2415  TIP3    H1 23452   0.417000   1.008000
23453         HT  2415  TIP3    H2 23453   0.417000   1.008000
23454         OT  2416  TIP3   OH2 23454  -0.834000  15.999400
23455         HT  2416  TIP3    H1 23455   0.417000   1.008000
23456         HT  2416  TIP3    H2 23456   0.417000   1.008000
23457         OT  2417  TIP3   OH2 23457  -0.834000  15.999400
23458         HT  2417  TIP3    H1 23458   0.417000   1.008000
23459         HT  2417  TIP3    H2 23459   0.417000   1.008000
23460         OT  2418  TIP3   OH2 23460  -0.834000  15.999400
23461         HT  2418  TIP3    H1 23461   0.417000   1.008000
23462         HT  2418  TIP3    H2 23462   0.417000   1.008000
23463         OT  2419  TIP3   OH2 23463  -0.834000  15.999400
23464         HT  2419  TIP3    H1 23464   0.417000   1.008000
23465         HT  2419  TIP3    H2 23465   0.417000   1.008000
23466         OT  2420  TIP3   OH2 23466  -0.834000  15.999400
23467         HT  2420  TIP3    H1 23467   0.417000   1.008000
23468         HT  2420  TIP3    H2 23468   0.417000   1.008000
23469         OT  2421  TIP3   OH2 23469  -0.834000  15.999400
23470         HT  2421  TIP3    H1 23470   0.417000   1.008000
23471         HT  2421  TIP3    H2 23471   0.417000   1.008000
23472         OT  2422  TIP3   OH2 23472  -0.834000  15.999400
23473         HT  2422  TIP3    H1 23473   0.417000   1.008000
23474         HT  2422  TIP3    H2 23474   0.417000   1.008000
23475         OT  2423  TIP3   OH2 23475  -0.834000  15.999400
23476         HT  2423  TIP3    H1 23476   0.417000   1.008000
23477         HT  2423  TIP3    H2 23477   0.417000   1.008000
23478         OT  2424  TIP3   OH2 23478  -0.834000  15.999400
23479         HT  2424  TIP3    H1 23479   0.417000   1.008000
23480         HT  2424  TIP3    H2 23480   0.417000   1.008000
23481         OT  2425  TIP3   OH2 23481  -0.834000  15.999400
23482         HT  2425  TIP3    H1 23482   0.417000   1.008000
23483         HT  2425  TIP3    H2 23483   0.417000   1.008000
23484         OT  2426  TIP3   OH2 23484  -0.834000  15.999400
23485         HT  2426  TIP3    H1 23485   0.417000   1.008000
23486         HT  2426  TIP3    H2 23486   0.417000   1.008000
23487         OT  2427  TIP3   OH2 23487  -0.834000  15.999400
23488         HT  2427  TIP3    H1 23488   0.417000   1.008000
23489         HT  2427  TIP3    H2 23489   0.417000   1.008000
23490         OT  2428  TIP3   OH2 23490  -0.834000  15.999400
23491         HT  2428  TIP3    H1 23491   0.417000   1.008000
23492         HT  2428  TIP3    H2 23492   0.417000   1.008000
23493         OT  2429  TIP3   OH2 23493  -0.834000  15.999400
23494         HT  2429  TIP3    H1 23494   0.417000   1.008000
23495         HT  2429  TIP3    H2 23495   0.417000   1.008000
23496         OT  2430  TIP3   OH2 23496  -0.834000  15.999400
23497         HT  2430  TIP3    H1 23497   0.417000   1.008000
23498         HT  2430  TIP3    H2 23498   0.417000   1.008000
23499         OT  2431  TIP3   OH2 23499  -0.834000  15.999400
23500         HT  2431  TIP3    H1 23500   0.417000   1.008000
23501         HT  2431  TIP3    H2 23501   0.417000   1.008000
23502         OT  2432  TIP3   OH2 23502  -0.834000  15.999400
23503         HT  2432  TIP3    H1 23503   0.417000   1.008000
23504         HT  2432  TIP3    H2 23504   0.417000   1.008000
23505         OT  2433  TIP3   OH2 23505  -0.834000  15.999400
23506         HT  2433  TIP3    H1 23506   0.417000   1.008000
23507         HT  2433  TIP3    H2 23507   0.417000   1.008000
23508         OT  2434  TIP3   OH2 23508  -0.834000  15.999400
23509         HT  2434  TIP3    H1 23509   0.417000   1.008000
23510         HT  2434  TIP3    H2 23510   0.417000   1.008000
23511         OT  2435  TIP3   OH2 23511  -0.834000  15.999400
23512         HT  2435  TIP3    H1 23512   0.417000   1.008000
23513         HT  2435  TIP3    H2 23513   0.417000   1.008000
23514         OT  2436  TIP3   OH2 23514  -0.834000  15.999400
23515         HT  2436  TIP3    H1 23515   0.417000   1.008000
23516         HT  2436  TIP3    H2 23516   0.417000   1.008000
23517         OT  2437  TIP3   OH2 23517  -0.834000  15.999400
23518         HT  2437  TIP3    H1 23518   0.417000   1.008000
23519         HT  2437  TIP3    H2 23519   0.417000   1.008000
23520         OT  2438  TIP3   OH2 23520  -0.834000  15.999400
23521         HT  2438  TIP3    H1 23521   0.417000   1.008000
23522         HT  2438  TIP3    H2 23522   0.417000   1.008000
23523         OT  2439  TIP3   OH2 23523  -0.834000  15.999400
23524         HT  2439  TIP3    H1 23524   0.417000   1.008000
23525         HT  2439  TIP3    H2 23525   0.417000   1.008000
23526         OT  2440  TIP3   OH2 23526  -0.834000  15.999400
23527         HT  2440  TIP3    H1 23527   0.417000   1.008000
23528         HT  2440  TIP3    H2 23528   0.417000   1.008000
23529         OT  2441  TIP3   OH2 23529  -0.834000  15.999400
23530         HT  2441  TIP3    H1 23530   0.417000   1.008000
23531         HT  2441  TIP3    H2 23531   0.417000   1.008000
23532         OT  2442  TIP3   OH2 23532  -0.834000  15.999400
23533         HT  2442  TIP3    H1 23533   0.417000   1.008000
23534         HT  2442  TIP3    H2 23534   0.417000   1.008000
23535         OT  2443  TIP3   OH2 23535  -0.834000  15.999400
23536         HT  2443  TIP3    H1 23536   0.417000   1.008000
23537         HT  2443  TIP3    H2 23537   0.417000   1.008000
23538         OT  2444  TIP3   OH2 23538  -0.834000  15.999400
23539         HT  2444  TIP3    H1 23539   0.417000   1.008000
23540         HT  2444  TIP3    H2 23540   0.417000   1.008000
23541         OT  2445  TIP3   OH2 23541  -0.834000  15.999400
23542         HT  2445  TIP3    H1 23542   0.417000   1.008000
23543         HT  2445  TIP3    H2 23543   0.417000   1.008000
23544         OT  2446  TIP3   OH2 23544  -0.834000  15.999400
23545         HT  2446  TIP3    H1 23545   0.417000   1.008000
23546         HT  2446  TIP3    H2 23546   0.417000   1.008000
23547         OT  2447  TIP3   OH2 23547  -0.834000  15.999400
23548         HT  2447  TIP3    H1 23548   0.417000   1.008000
23549         HT  2447  TIP3    H2 23549   0.417000   1.008000
23550         OT  2448  TIP3   OH2 23550  -0.834000  15.999400
23551         HT  2448  TIP3    H1 23551   0.417000   1.008000
23552         HT  2448  TIP3    H2 23552   0.417000   1.008000
23553         OT  2449  TIP3   OH2 23553  -0.834000  15.999400
23554         HT  2449  TIP3    H1 23554   0.417000   1.008000
23555         HT  2449  TIP3    H2 23555   0.417000   1.008000
23556         OT  2450  TIP3   OH2 23556  -0.834000  15.999400
23557         HT  2450  TIP3    H1 23557   0.417000   1.008000
23558         HT  2450  TIP3    H2 23558   0.417000   1.008000
23559         OT  2451  TIP3   OH2 23559  -0.834000  15.999400
23560         HT  2451  TIP3    H1 23560   0.417000   1.008000
23561         HT  2451  TIP3    H2 23561   0.417000   1.008000
23562         OT  2452  TIP3   OH2 23562  -0.834000  15.999400
23563         HT  2452  TIP3    H1 23563   0.417000   1.008000
23564         HT  2452  TIP3    H2 23564   0.417000   1.008000
23565         OT  2453  TIP3   OH2 23565  -0.834000  15.999400
23566         HT  2453  TIP3    H1 23566   0.417000   1.008000
23567         HT  2453  TIP3    H2 23567   0.417000   1.008000
23568         OT  2454  TIP3   OH2 23568  -0.834000  15.999400
23569         HT  2454  TIP3    H1 23569   0.417000   1.008000
23570         HT  2454  TIP3    H2 23570   0.417000   1.008000
23571         OT  2455  TIP3   OH2 23571  -0.834000  15.999400
23572         HT  2455  TIP3    H1 23572   0.417000   1.008000
23573         HT  2455  TIP3    H2 23573   0.417000   1.008000
23574         OT  2456  TIP3   OH2 23574  -0.834000  15.999400
23575         HT  2456  TIP3    H1 23575   0.417000   1.008000
23576         HT  2456  TIP3    H2 23576   0.417000   1.008000
23577         OT  2457  TIP3   OH2 23577  -0.834000  15.999400
23578         HT  2457  TIP3    H1 23578   0.417000   1.008000
23579         HT  2457  TIP3    H2 23579   0.417000   1.008000
23580         OT  2458  TIP3   OH2 23580  -0.834000  15.999400
23581         HT  2458  TIP3    H1 23581   0.417000   1.008000
23582         HT  2458  TIP3    H2 23582   0.417000   1.008000
23583         OT  2459  TIP3   OH2 23583  -0.834000  15.999400
23584         HT  2459  TIP3    H1 23584   0.417000   1.008000
23585         HT  2459  TIP3    H2 23585   0.417000   1.008000
23586         OT  2460  TIP3   OH2 23586  -0.834000  15.999400
23587         HT  2460  TIP3    H1 23587   0.417000   1.008000
23588         HT  2460  TIP3    H2 23588   0.417000   1.008000
23589         OT  2461  TIP3   OH2 23589  -0.834000  15.999400
23590         HT  2461  TIP3    H1 23590   0.417000   1.008000
23591         HT  2461  TIP3    H2 23591   0.417000   1.008000
23592         OT  2462  TIP3   OH2 23592  -0.834000  15.999400
23593         HT  2462  TIP3    H1 23593   0.417000   1.008000
23594         HT  2462  TIP3    H2 23594   0.417000   1.008000
23595         OT  2463  TIP3   OH2 23595  -0.834000  15.999400
23596         HT  2463  TIP3    H1 23596   0.417000   1.008000
23597         HT  2463  TIP3    H2 23597   0.417000   1.008000
23598         OT  2464  TIP3   OH2 23598  -0.834000  15.999400
23599         HT  2464  TIP3    H1 23599   0.417000   1.008000
23600         HT  2464  TIP3    H2 23600   0.417000   1.008000
23601         OT  2465  TIP3   OH2 23601  -0.834000  15.999400
23602         HT  2465  TIP3    H1 23602   0.417000   1.008000
23603         HT  2465  TIP3    H2 23603   0.417000   1.008000
23604         OT  2466  TIP3   OH2 23604  -0.834000  15.999400
23605         HT  2466  TIP3    H1 23605   0.417000   1.008000
23606         HT  2466  TIP3    H2 23606   0.417000   1.008000
23607         OT  2467  TIP3   OH2 23607  -0.834000  15.999400
23608         HT  2467  TIP3    H1 23608   0.417000   1.008000
23609         HT  2467  TIP3    H2 23609   0.417000   1.008000
23610         OT  2468  TIP3   OH2 23610  -0.834000  15.999400
23611         HT  2468  TIP3    H1 23611   0.417000   1.008000
23612         HT  2468  TIP3    H2 23612   0.417000   1.008000
23613         OT  2469  TIP3   OH2 23613  -0.834000  15.999400
23614         HT  2469  TIP3    H1 23614   0.417000   1.008000
23615         HT  2469  TIP3    H2 23615   0.417000   1.008000
23616         OT  2470  TIP3   OH2 23616  -0.834000  15.999400
23617         HT  2470  TIP3    H1 23617   0.417000   1.008000
23618         HT  2470  TIP3    H2 23618   0.417000   1.008000
23619         OT  2471  TIP3   OH2 23619  -0.834000  15.999400
23620         HT  2471  TIP3    H1 23620   0.417000   1.008000
23621         HT  2471  TIP3    H2 23621   0.417000   1.008000
23622         OT  2472  TIP3   OH2 23622  -0.834000  15.999400
23623         HT  2472  TIP3    H1 23623   0.417000   1.008000
23624         HT  2472  TIP3    H2 23624   0.417000   1.008000
23625         OT  2473  TIP3   OH2 23625  -0.834000  15.999400
23626         HT  2473  TIP3    H1 23626   0.417000   1.008000
23627         HT  2473  TIP3    H2 23627   0.417000   1.008000
23628         OT  2474  TIP3   OH2 23628  -0.834000  15.999400
23629         HT  2474  TIP3    H1 23629   0.417000   1.008000
23630         HT  2474  TIP3    H2 23630   0.417000   1.008000
23631         OT  2475  TIP3   OH2 23631  -0.834000  15.999400
23632         HT  2475  TIP3    H1 23632   0.417000   1.008000
23633         HT  2475  TIP3    H2 23633   0.417000   1.008000
23634         OT  2476  TIP3   OH2 23634  -0.834000  15.999400
23635         HT  2476  TIP3    H1 23635   0.417000   1.008000
23636         HT  2476  TIP3    H2 23636   0.417000   1.008000
23637         OT  2477  TIP3   OH2 23637  -0.834000  15.999400
23638         HT  2477  TIP3    H1 23638   0.417000   1.008000
23639         HT  2477  TIP3    H2 23639   0.417000   1.008000
23640         OT  2478  TIP3   OH2 23640  -0.834000  15.999400
23641         HT  2478  TIP3    H1 23641   0.417000   1.008000
23642         HT  2478  TIP3    H2 23642   0.417000   1.008000
23643         OT  2479  TIP3   OH2 23643  -0.834000  15.999400
23644         HT  2479  TIP3    H1 23644   0.417000   1.008000
23645         HT  2479  TIP3    H2 23645   0.417000   1.008000
23646         OT  2480  TIP3   OH2 23646  -0.834000  15.999400
23647         HT  2480  TIP3    H1 23647   0.417000   1.008000
23648         HT  2480  TIP3    H2 23648   0.417000   1.008000
23649         OT  2481  TIP3   OH2 23649  -0.834000  15.999400
23650         HT  2481  TIP3    H1 23650   0.417000   1.008000
23651         HT  2481  TIP3    H2 23651   0.417000   1.008000
23652         OT  2482  TIP3   OH2 23652  -0.834000  15.999400
23653         HT  2482  TIP3    H1 23653   0.417000   1.008000
23654         HT  2482  TIP3    H2 23654   0.417000   1.008000
23655         OT  2483  TIP3   OH2 23655  -0.834000  15.999400
23656         HT  2483  TIP3    H1 23656   0.417000   1.008000
23657         HT  2483  TIP3    H2 23657   0.417000   1.008000
23658         OT  2484  TIP3   OH2 23658  -0.834000  15.999400
23659         HT  2484  TIP3    H1 23659   0.417000   1.008000
23660         HT  2484  TIP3    H2 23660   0.417000   1.008000
23661         OT  2485  TIP3   OH2 23661  -0.834000  15.999400
23662         HT  2485  TIP3    H1 23662   0.417000   1.008000
23663         HT  2485  TIP3    H2 23663   0.417000   1.008000
23664         OT  2486  TIP3   OH2 23664  -0.834000  15.999400
23665         HT  2486  TIP3    H1 23665   0.417000   1.008000
23666         HT  2486  TIP3    H2 23666   0.417000   1.008000
23667         OT  2487  TIP3   OH2 23667  -0.834000  15.999400
23668         HT  2487  TIP3    H1 23668   0.417000   1.008000
23669         HT  2487  TIP3    H2 23669   0.417000   1.008000
23670         OT  2488  TIP3   OH2 23670  -0.834000  15.999400
23671         HT  2488  TIP3    H1 23671   0.417000   1.008000
23672         HT  2488  TIP3    H2 23672   0.417000   1.008000
23673         OT  2489  TIP3   OH2 23673  -0.834000  15.999400
23674         HT  2489  TIP3    H1 23674   0.417000   1.008000
23675         HT  2489  TIP3    H2 23675   0.417000   1.008000
23676         OT  2490  TIP3   OH2 23676  -0.834000  15.999400
23677         HT  2490  TIP3    H1 23677   0.417000   1.008000
23678         HT  2490  TIP3    H2 23678   0.417000   1.008000
23679         OT  2491  TIP3   OH2 23679  -0.834000  15.999400
23680         HT  2491  TIP3    H1 23680   0.417000   1.008000
23681         HT  2491  TIP3    H2 23681   0.417000   1.008000
23682         OT  2492  TIP3   OH2 23682  -0.834000  15.999400
23683         HT  2492  TIP3    H1 23683   0.417000   1.008000
23684         HT  2492  TIP3    H2 23684   0.417000   1.008000
23685         OT  2493  TIP3   OH2 23685  -0.834000  15.999400
23686         HT  2493  TIP3    H1 23686   0.417000   1.008000
23687         HT  2493  TIP3    H2 23687   0.417000   1.008000
23688         OT  2494  TIP3   OH2 23688  -0.834000  15.999400
23689         HT  2494  TIP3    H1 23689   0.417000   1.008000
23690         HT  2494  TIP3    H2 23690   0.417000   1.008000
23691         OT  2495  TIP3   OH2 23691  -0.834000  15.999400
23692         HT  2495  TIP3    H1 23692   0.417000   1.008000
23693         HT  2495  TIP3    H2 23693   0.417000   1.008000
23694         OT  2496  TIP3   OH2 23694  -0.834000  15.999400
23695         HT  2496  TIP3    H1 23695   0.417000   1.008000
23696         HT  2496  TIP3    H2 23696   0.417000   1.008000
23697         OT  2497  TIP3   OH2 23697  -0.834000  15.999400
23698         HT  2497  TIP3    H1 23698   0.417000   1.008000
23699         HT  2497  TIP3    H2 23699   0.417000   1.008000
23700         OT  2498  TIP3   OH2 23700  -0.834000  15.999400
23701         HT  2498  TIP3    H1 23701   0.417000   1.008000
23702         HT  2498  TIP3    H2 23702   0.417000   1.008000
23703         OT  2499  TIP3   OH2 23703  -0.834000  15.999400
23704         HT  2499  TIP3    H1 23704   0.417000   1.008000
23705         HT  2499  TIP3    H2 23705   0.417000   1.008000
23706         OT  2500  TIP3   OH2 23706  -0.834000  15.999400
23707         HT  2500  TIP3    H1 23707   0.417000   1.008000
23708         HT  2500  TIP3    H2 23708   0.417000   1.008000
23709         OT  2501  TIP3   OH2 23709  -0.834000  15.999400
23710         HT  2501  TIP3    H1 23710   0.417000   1.008000
23711         HT  2501  TIP3    H2 23711   0.417000   1.008000
23712         OT  2502  TIP3   OH2 23712  -0.834000  15.999400
23713         HT  2502  TIP3    H1 23713   0.417000   1.008000
23714         HT  2502  TIP3    H2 23714   0.417000   1.008000
23715         OT  2503  TIP3   OH2 23715  -0.834000  15.999400
23716         HT  2503  TIP3    H1 23716   0.417000   1.008000
23717         HT  2503  TIP3    H2 23717   0.417000   1.008000
23718         OT  2504  TIP3   OH2 23718  -0.834000  15.999400
23719         HT  2504  TIP3    H1 23719   0.417000   1.008000
23720         HT  2504  TIP3    H2 23720   0.417000   1.008000
23721         OT  2505  TIP3   OH2 23721  -0.834000  15.999400
23722         HT  2505  TIP3    H1 23722   0.417000   1.008000
23723         HT  2505  TIP3    H2 23723   0.417000   1.008000
23724         OT  2506  TIP3   OH2 23724  -0.834000  15.999400
23725         HT  2506  TIP3    H1 23725   0.417000   1.008000
23726         HT  2506  TIP3    H2 23726   0.417000   1.008000
23727         OT  2507  TIP3   OH2 23727  -0.834000  15.999400
23728         HT  2507  TIP3    H1 23728   0.417000   1.008000
23729         HT  2507  TIP3    H2 23729   0.417000   1.008000
23730         OT  2508  TIP3   OH2 23730  -0.834000  15.999400
23731         HT  2508  TIP3    H1 23731   0.417000   1.008000
23732         HT  2508  TIP3    H2 23732   0.417000   1.008000
23733         OT  2509  TIP3   OH2 23733  -0.834000  15.999400
23734         HT  2509  TIP3    H1 23734   0.417000   1.008000
23735         HT  2509  TIP3    H2 23735   0.417000   1.008000
23736         OT  2510  TIP3   OH2 23736  -0.834000  15.999400
23737         HT  2510  TIP3    H1 23737   0.417000   1.008000
23738         HT  2510  TIP3    H2 23738   0.417000   1.008000
23739         OT  2511  TIP3   OH2 23739  -0.834000  15.999400
23740         HT  2511  TIP3    H1 23740   0.417000   1.008000
23741         HT  2511  TIP3    H2 23741   0.417000   1.008000
23742         OT  2512  TIP3   OH2 23742  -0.834000  15.999400
23743         HT  2512  TIP3    H1 23743   0.417000   1.008000
23744         HT  2512  TIP3    H2 23744   0.417000   1.008000
23745         OT  2513  TIP3   OH2 23745  -0.834000  15.999400
23746         HT  2513  TIP3    H1 23746   0.417000   1.008000
23747         HT  2513  TIP3    H2 23747   0.417000   1.008000
23748         OT  2514  TIP3   OH2 23748  -0.834000  15.999400
23749         HT  2514  TIP3    H1 23749   0.417000   1.008000
23750         HT  2514  TIP3    H2 23750   0.417000   1.008000
23751         OT  2515  TIP3   OH2 23751  -0.834000  15.999400
23752         HT  2515  TIP3    H1 23752   0.417000   1.008000
23753         HT  2515  TIP3    H2 23753   0.417000   1.008000
23754         OT  2516  TIP3   OH2 23754  -0.834000  15.999400
23755         HT  2516  TIP3    H1 23755   0.417000   1.008000
23756         HT  2516  TIP3    H2 23756   0.417000   1.008000
23757         OT  2517  TIP3   OH2 23757  -0.834000  15.999400
23758         HT  2517  TIP3    H1 23758   0.417000   1.008000
23759         HT  2517  TIP3    H2 23759   0.417000   1.008000
23760         OT  2518  TIP3   OH2 23760  -0.834000  15.999400
23761         HT  2518  TIP3    H1 23761   0.417000   1.008000
23762         HT  2518  TIP3    H2 23762   0.417000   1.008000
23763         OT  2519  TIP3   OH2 23763  -0.834000  15.999400
23764         HT  2519  TIP3    H1 23764   0.417000   1.008000
23765         HT  2519  TIP3    H2 23765   0.417000   1.008000
23766         OT  2520  TIP3   OH2 23766  -0.834000  15.999400
23767         HT  2520  TIP3    H1 23767   0.417000   1.008000
23768         HT  2520  TIP3    H2 23768   0.417000   1.008000
23769         OT  2521  TIP3   OH2 23769  -0.834000  15.999400
23770         HT  2521  TIP3    H1 23770   0.417000   1.008000
23771         HT  2521  TIP3    H2 23771   0.417000   1.008000
23772         OT  2522  TIP3   OH2 23772  -0.834000  15.999400
23773         HT  2522  TIP3    H1 23773   0.417000   1.008000
23774         HT  2522  TIP3    H2 23774   0.417000   1.008000
23775         OT  2523  TIP3   OH2 23775  -0.834000  15.999400
23776         HT  2523  TIP3    H1 23776   0.417000   1.008000
23777         HT  2523  TIP3    H2 23777   0.417000   1.008000
23778         OT  2524  TIP3   OH2 23778  -0.834000  15.999400
23779         HT  2524  TIP3    H1 23779   0.417000   1.008000
23780         HT  2524  TIP3    H2 23780   0.417000   1.008000
23781         OT  2525  TIP3   OH2 23781  -0.834000  15.999400
23782         HT  2525  TIP3    H1 23782   0.417000   1.008000
23783         HT  2525  TIP3    H2 23783   0.417000   1.008000
23784         OT  2526  TIP3   OH2 23784  -0.834000  15.999400
23785         HT  2526  TIP3    H1 23785   0.417000   1.008000
23786         HT  2526  TIP3    H2 23786   0.417000   1.008000
23787         OT  2527  TIP3   OH2 23787  -0.834000  15.999400
23788         HT  2527  TIP3    H1 23788   0.417000   1.008000
23789         HT  2527  TIP3    H2 23789   0.417000   1.008000
23790         OT  2528  TIP3   OH2 23790  -0.834000  15.999400
23791         HT  2528  TIP3    H1 23791   0.417000   1.008000
23792         HT  2528  TIP3    H2 23792   0.417000   1.008000
23793         OT  2529  TIP3   OH2 23793  -0.834000  15.999400
23794         HT  2529  TIP3    H1 23794   0.417000   1.008000
23795         HT  2529  TIP3    H2 23795   0.417000   1.008000
23796         OT  2530  TIP3   OH2 23796  -0.834000  15.999400
23797         HT  2530  TIP3    H1 23797   0.417000   1.008000
23798         HT  2530  TIP3    H2 23798   0.417000   1.008000
23799         OT  2531  TIP3   OH2 23799  -0.834000  15.999400
23800         HT  2531  TIP3    H1 23800   0.417000   1.008000
23801         HT  2531  TIP3    H2 23801   0.417000   1.008000
23802         OT  2532  TIP3   OH2 23802  -0.834000  15.999400
23803         HT  2532  TIP3    H1 23803   0.417000   1.008000
23804         HT  2532  TIP3    H2 23804   0.417000   1.008000
23805         OT  2533  TIP3   OH2 23805  -0.834000  15.999400
23806         HT  2533  TIP3    H1 23806   0.417000   1.008000
23807         HT  2533  TIP3    H2 23807   0.417000   1.008000
23808         OT  2534  TIP3   OH2 23808  -0.834000  15.999400
23809         HT  2534  TIP3    H1 23809   0.417000   1.008000
23810         HT  2534  TIP3    H2 23810   0.417000   1.008000
23811         OT  2535  TIP3   OH2 23811  -0.834000  15.999400
23812         HT  2535  TIP3    H1 23812   0.417000   1.008000
23813         HT  2535  TIP3    H2 23813   0.417000   1.008000
23814         OT  2536  TIP3   OH2 23814  -0.834000  15.999400
23815         HT  2536  TIP3    H1 23815   0.417000   1.008000
23816         HT  2536  TIP3    H2 23816   0.417000   1.008000
23817         OT  2537  TIP3   OH2 23817  -0.834000  15.999400
23818         HT  2537  TIP3    H1 23818   0.417000   1.008000
23819         HT  2537  TIP3    H2 23819   0.417000   1.008000
23820         OT  2538  TIP3   OH2 23820  -0.834000  15.999400
23821         HT  2538  TIP3    H1 23821   0.417000   1.008000
23822         HT  2538  TIP3    H2 23822   0.417000   1.008000
23823         OT  2539  TIP3   OH2 23823  -0.834000  15.999400
23824         HT  2539  TIP3    H1 23824   0.417000   1.008000
23825         HT  2539  TIP3    H2 23825   0.417000   1.008000
23826         OT  2540  TIP3   OH2 23826  -0.834000  15.999400
23827         HT  2540  TIP3    H1 23827   0.417000   1.008000
23828         HT  2540  TIP3    H2 23828   0.417000   1.008000
23829         OT  2541  TIP3   OH2 23829  -0.834000  15.999400
23830         HT  2541  TIP3    H1 23830   0.417000   1.008000
23831         HT  2541  TIP3    H2 23831   0.417000   1.008000
23832         OT  2542  TIP3   OH2 23832  -0.834000  15.999400
23833         HT  2542  TIP3    H1 23833   0.417000   1.008000
23834         HT  2542  TIP3    H2 23834   0.417000   1.008000
23835         OT  2543  TIP3   OH2 23835  -0.834000  15.999400
23836         HT  2543  TIP3    H1 23836   0.417000   1.008000
23837         HT  2543  TIP3    H2 23837   0.417000   1.008000
23838         OT  2544  TIP3   OH2 23838  -0.834000  15.999400
23839         HT  2544  TIP3    H1 23839   0.417000   1.008000
23840         HT  2544  TIP3    H2 23840   0.417000   1.008000
23841         OT  2545  TIP3   OH2 23841  -0.834000  15.999400
23842         HT  2545  TIP3    H1 23842   0.417000   1.008000
23843         HT  2545  TIP3    H2 23843   0.417000   1.008000
23844         OT  2546  TIP3   OH2 23844  -0.834000  15.999400
23845         HT  2546  TIP3    H1 23845   0.417000   1.008000
23846         HT  2546  TIP3    H2 23846   0.417000   1.008000
23847         OT  2547  TIP3   OH2 23847  -0.834000  15.999400
23848         HT  2547  TIP3    H1 23848   0.417000   1.008000
23849         HT  2547  TIP3    H2 23849   0.417000   1.008000
23850         OT  2548  TIP3   OH2 23850  -0.834000  15.999400
23851         HT  2548  TIP3    H1 23851   0.417000   1.008000
23852         HT  2548  TIP3    H2 23852   0.417000   1.008000
23853         OT  2549  TIP3   OH2 23853  -0.834000  15.999400
23854         HT  2549  TIP3    H1 23854   0.417000   1.008000
23855         HT  2549  TIP3    H2 23855   0.417000   1.008000
23856         OT  2550  TIP3   OH2 23856  -0.834000  15.999400
23857         HT  2550  TIP3    H1 23857   0.417000   1.008000
23858         HT  2550  TIP3    H2 23858   0.417000   1.008000
23859         OT  2551  TIP3   OH2 23859  -0.834000  15.999400
23860         HT  2551  TIP3    H1 23860   0.417000   1.008000
23861         HT  2551  TIP3    H2 23861   0.417000   1.008000
23862         OT  2552  TIP3   OH2 23862  -0.834000  15.999400
23863         HT  2552  TIP3    H1 23863   0.417000   1.008000
23864         HT  2552  TIP3    H2 23864   0.417000   1.008000
23865         OT  2553  TIP3   OH2 23865  -0.834000  15.999400
23866         HT  2553  TIP3    H1 23866   0.417000   1.008000
23867         HT  2553  TIP3    H2 23867   0.417000   1.008000
23868         OT  2554  TIP3   OH2 23868  -0.834000  15.999400
23869         HT  2554  TIP3    H1 23869   0.417000   1.008000
23870         HT  2554  TIP3    H2 23870   0.417000   1.008000
23871         OT  2555  TIP3   OH2 23871  -0.834000  15.999400
23872         HT  2555  TIP3    H1 23872   0.417000   1.008000
23873         HT  2555  TIP3    H2 23873   0.417000   1.008000
23874         OT  2556  TIP3   OH2 23874  -0.834000  15.999400
23875         HT  2556  TIP3    H1 23875   0.417000   1.008000
23876         HT  2556  TIP3    H2 23876   0.417000   1.008000
23877         OT  2557  TIP3   OH2 23877  -0.834000  15.999400
23878         HT  2557  TIP3    H1 23878   0.417000   1.008000
23879         HT  2557  TIP3    H2 23879   0.417000   1.008000
23880         OT  2558  TIP3   OH2 23880  -0.834000  15.999400
23881         HT  2558  TIP3    H1 23881   0.417000   1.008000
23882         HT  2558  TIP3    H2 23882   0.417000   1.008000
23883         OT  2559  TIP3   OH2 23883  -0.834000  15.999400
23884         HT  2559  TIP3    H1 23884   0.417000   1.008000
23885         HT  2559  TIP3    H2 23885   0.417000   1.008000
23886         OT  2560  TIP3   OH2 23886  -0.834000  15.999400
23887         HT  2560  TIP3    H1 23887   0.417000   1.008000
23888         HT  2560  TIP3    H2 23888   0.417000   1.008000
23889         OT  2561  TIP3   OH2 23889  -0.834000  15.999400
23890         HT  2561  TIP3    H1 23890   0.417000   1.008000
23891         HT  2561  TIP3    H2 23891   0.417000   1.008000
23892         OT  2562  TIP3   OH2 23892  -0.834000  15.999400
23893         HT  2562  TIP3    H1 23893   0.417000   1.008000
23894         HT  2562  TIP3    H2 23894   0.417000   1.008000
23895         OT  2563  TIP3   OH2 23895  -0.834000  15.999400
23896         HT  2563  TIP3    H1 23896   0.417000   1.008000
23897         HT  2563  TIP3    H2 23897   0.417000   1.008000
23898         OT  2564  TIP3   OH2 23898  -0.834000  15.999400
23899         HT  2564  TIP3    H1 23899   0.417000   1.008000
23900         HT  2564  TIP3    H2 23900   0.417000   1.008000
23901         OT  2565  TIP3   OH2 23901  -0.834000  15.999400
23902         HT  2565  TIP3    H1 23902   0.417000   1.008000
23903         HT  2565  TIP3    H2 23903   0.417000   1.008000
23904         OT  2566  TIP3   OH2 23904  -0.834000  15.999400
23905         HT  2566  TIP3    H1 23905   0.417000   1.008000
23906         HT  2566  TIP3    H2 23906   0.417000   1.008000
23907         OT  2567  TIP3   OH2 23907  -0.834000  15.999400
23908         HT  2567  TIP3    H1 23908   0.417000   1.008000
23909         HT  2567  TIP3    H2 23909   0.417000   1.008000
23910         OT  2568  TIP3   OH2 23910  -0.834000  15.999400
23911         HT  2568  TIP3    H1 23911   0.417000   1.008000
23912         HT  2568  TIP3    H2 23912   0.417000   1.008000
23913         OT  2569  TIP3   OH2 23913  -0.834000  15.999400
23914         HT  2569  TIP3    H1 23914   0.417000   1.008000
23915         HT  2569  TIP3    H2 23915   0.417000   1.008000
23916         OT  2570  TIP3   OH2 23916  -0.834000  15.999400
23917         HT  2570  TIP3    H1 23917   0.417000   1.008000
23918         HT  2570  TIP3    H2 23918   0.417000   1.008000
23919         OT  2571  TIP3   OH2 23919  -0.834000  15.999400
23920         HT  2571  TIP3    H1 23920   0.417000   1.008000
23921         HT  2571  TIP3    H2 23921   0.417000   1.008000
23922         OT  2572  TIP3   OH2 23922  -0.834000  15.999400
23923         HT  2572  TIP3    H1 23923   0.417000   1.008000
23924         HT  2572  TIP3    H2 23924   0.417000   1.008000
23925         OT  2573  TIP3   OH2 23925  -0.834000  15.999400
23926         HT  2573  TIP3    H1 23926   0.417000   1.008000
23927         HT  2573  TIP3    H2 23927   0.417000   1.008000
23928         OT  2574  TIP3   OH2 23928  -0.834000  15.999400
23929         HT  2574  TIP3    H1 23929   0.417000   1.008000
23930         HT  2574  TIP3    H2 23930   0.417000   1.008000
23931         OT  2575  TIP3   OH2 23931  -0.834000  15.999400
23932         HT  2575  TIP3    H1 23932   0.417000   1.008000
23933         HT  2575  TIP3    H2 23933   0.417000   1.008000
23934         OT  2576  TIP3   OH2 23934  -0.834000  15.999400
23935         HT  2576  TIP3    H1 23935   0.417000   1.008000
23936         HT  2576  TIP3    H2 23936   0.417000   1.008000
23937         OT  2577  TIP3   OH2 23937  -0.834000  15.999400
23938         HT  2577  TIP3    H1 23938   0.417000   1.008000
23939         HT  2577  TIP3    H2 23939   0.417000   1.008000
23940         OT  2578  TIP3   OH2 23940  -0.834000  15.999400
23941         HT  2578  TIP3    H1 23941   0.417000   1.008000
23942         HT  2578  TIP3    H2 23942   0.417000   1.008000
23943         OT  2579  TIP3   OH2 23943  -0.834000  15.999400
23944         HT  2579  TIP3    H1 23944   0.417000   1.008000
23945         HT  2579  TIP3    H2 23945   0.417000   1.008000
23946         OT  2580  TIP3   OH2 23946  -0.834000  15.999400
23947         HT  2580  TIP3    H1 23947   0.417000   1.008000
23948         HT  2580  TIP3    H2 23948   0.417000   1.008000
23949         OT  2581  TIP3   OH2 23949  -0.834000  15.999400
23950         HT  2581  TIP3    H1 23950   0.417000   1.008000
23951         HT  2581  TIP3    H2 23951   0.417000   1.008000
23952         OT  2582  TIP3   OH2 23952  -0.834000  15.999400
23953         HT  2582  TIP3    H1 23953   0.417000   1.008000
23954         HT  2582  TIP3    H2 23954   0.417000   1.008000
23955         OT  2583  TIP3   OH2 23955  -0.834000  15.999400
23956         HT  2583  TIP3    H1 23956   0.417000   1.008000
23957         HT  2583  TIP3    H2 23957   0.417000   1.008000
23958         OT  2584  TIP3   OH2 23958  -0.834000  15.999400
23959         HT  2584  TIP3    H1 23959   0.417000   1.008000
23960         HT  2584  TIP3    H2 23960   0.417000   1.008000
23961         OT  2585  TIP3   OH2 23961  -0.834000  15.999400
23962         HT  2585  TIP3    H1 23962   0.417000   1.008000
23963         HT  2585  TIP3    H2 23963   0.417000   1.008000
23964         OT  2586  TIP3   OH2 23964  -0.834000  15.999400
23965         HT  2586  TIP3    H1 23965   0.417000   1.008000
23966         HT  2586  TIP3    H2 23966   0.417000   1.008000
23967         OT  2587  TIP3   OH2 23967  -0.834000  15.999400
23968         HT  2587  TIP3    H1 23968   0.417000   1.008000
23969         HT  2587  TIP3    H2 23969   0.417000   1.008000
23970         OT  2588  TIP3   OH2 23970  -0.834000  15.999400
23971         HT  2588  TIP3    H1 23971   0.417000   1.008000
23972         HT  2588  TIP3    H2 23972   0.417000   1.008000
23973         OT  2589  TIP3   OH2 23973  -0.834000  15.999400
23974         HT  2589  TIP3    H1 23974   0.417000   1.008000
23975         HT  2589  TIP3    H2 23975   0.417000   1.008000
23976         OT  2590  TIP3   OH2 23976  -0.834000  15.999400
23977         HT  2590  TIP3    H1 23977   0.417000   1.008000
23978         HT  2590  TIP3    H2 23978   0.417000   1.008000
23979         OT  2591  TIP3   OH2 23979  -0.834000  15.999400
23980         HT  2591  TIP3    H1 23980   0.417000   1.008000
23981         HT  2591  TIP3    H2 23981   0.417000   1.008000
23982         OT  2592  TIP3   OH2 23982  -0.834000  15.999400
23983         HT  2592  TIP3    H1 23983   0.417000   1.008000
23984         HT  2592  TIP3    H2 23984   0.417000   1.008000
23985         OT  2593  TIP3   OH2 23985  -0.834000  15.999400
23986         HT  2593  TIP3    H1 23986   0.417000   1.008000
23987         HT  2593  TIP3    H2 23987   0.417000   1.008000
23988         OT  2594  TIP3   OH2 23988  -0.834000  15.999400
23989         HT  2594  TIP3    H1 23989   0.417000   1.008000
23990         HT  2594  TIP3    H2 23990   0.417000   1.008000
23991         OT  2595  TIP3   OH2 23991  -0.834000  15.999400
23992         HT  2595  TIP3    H1 23992   0.417000   1.008000
23993         HT  2595  TIP3    H2 23993   0.417000   1.008000
23994         OT  2596  TIP3   OH2 23994  -0.834000  15.999400
23995         HT  2596  TIP3    H1 23995   0.417000   1.008000
23996         HT  2596  TIP3    H2 23996   0.417000   1.008000
23997         OT  2597  TIP3   OH2 23997  -0.834000  15.999400
23998         HT  2597  TIP3    H1 23998   0.417000   1.008000
23999         HT  2597  TIP3    H2 23999   0.417000   1.008000
24000         OT  2598  TIP3   OH2 24000  -0.834000  15.999400
24001         HT  2598  TIP3    H1 24001   0.417000   1.008000
24002         HT  2598  TIP3    H2 24002   0.417000   1.008000
24003         OT  2599  TIP3   OH2 24003  -0.834000  15.999400
24004         HT  2599  TIP3    H1 24004   0.417000   1.008000
24005         HT  2599  TIP3    H2 24005   0.417000   1.008000
24006         OT  2600  TIP3   OH2 24006  -0.834000  15.999400
24007         HT  2600  TIP3    H1 24007   0.417000   1.008000
24008         HT  2600  TIP3    H2 24008   0.417000   1.008000
24009         OT  2601  TIP3   OH2 24009  -0.834000  15.999400
24010         HT  2601  TIP3    H1 24010   0.417000   1.008000
24011         HT  2601  TIP3    H2 24011   0.417000   1.008000
24012         OT  2602  TIP3   OH2 24012  -0.834000  15.999400
24013         HT  2602  TIP3    H1 24013   0.417000   1.008000
24014         HT  2602  TIP3    H2 24014   0.417000   1.008000
24015         OT  2603  TIP3   OH2 24015  -0.834000  15.999400
24016         HT  2603  TIP3    H1 24016   0.417000   1.008000
24017         HT  2603  TIP3    H2 24017   0.417000   1.008000
24018         OT  2604  TIP3   OH2 24018  -0.834000  15.999400
24019         HT  2604  TIP3    H1 24019   0.417000   1.008000
24020         HT  2604  TIP3    H2 24020   0.417000   1.008000
24021         OT  2605  TIP3   OH2 24021  -0.834000  15.999400
24022         HT  2605  TIP3    H1 24022   0.417000   1.008000
24023         HT  2605  TIP3    H2 24023   0.417000   1.008000
24024         OT  2606  TIP3   OH2 24024  -0.834000  15.999400
24025         HT  2606  TIP3    H1 24025   0.417000   1.008000
24026         HT  2606  TIP3    H2 24026   0.417000   1.008000
24027         OT  2607  TIP3   OH2 24027  -0.834000  15.999400
24028         HT  2607  TIP3    H1 24028   0.417000   1.008000
24029         HT  2607  TIP3    H2 24029   0.417000   1.008000
24030         OT  2608  TIP3   OH2 24030  -0.834000  15.999400
24031         HT  2608  TIP3    H1 24031   0.417000   1.008000
24032         HT  2608  TIP3    H2 24032   0.417000   1.008000
24033         OT  2609  TIP3   OH2 24033  -0.834000  15.999400
24034         HT  2609  TIP3    H1 24034   0.417000   1.008000
24035         HT  2609  TIP3    H2 24035   0.417000   1.008000
24036         OT  2610  TIP3   OH2 24036  -0.834000  15.999400
24037         HT  2610  TIP3    H1 24037   0.417000   1.008000
24038         HT  2610  TIP3    H2 24038   0.417000   1.008000
24039         OT  2611  TIP3   OH2 24039  -0.834000  15.999400
24040         HT  2611  TIP3    H1 24040   0.417000   1.008000
24041         HT  2611  TIP3    H2 24041   0.417000   1.008000
24042         OT  2612  TIP3   OH2 24042  -0.834000  15.999400
24043         HT  2612  TIP3    H1 24043   0.417000   1.008000
24044         HT  2612  TIP3    H2 24044   0.417000   1.008000
24045         OT  2613  TIP3   OH2 24045  -0.834000  15.999400
24046         HT  2613  TIP3    H1 24046   0.417000   1.008000
24047         HT  2613  TIP3    H2 24047   0.417000   1.008000
24048         OT  2614  TIP3   OH2 24048  -0.834000  15.999400
24049         HT  2614  TIP3    H1 24049   0.417000   1.008000
24050         HT  2614  TIP3    H2 24050   0.417000   1.008000
24051         OT  2615  TIP3   OH2 24051  -0.834000  15.999400
24052         HT  2615  TIP3    H1 24052   0.417000   1.008000
24053         HT  2615  TIP3    H2 24053   0.417000   1.008000
24054         OT  2616  TIP3   OH2 24054  -0.834000  15.999400
24055         HT  2616  TIP3    H1 24055   0.417000   1.008000
24056         HT  2616  TIP3    H2 24056   0.417000   1.008000
24057         OT  2617  TIP3   OH2 24057  -0.834000  15.999400
24058         HT  2617  TIP3    H1 24058   0.417000   1.008000
24059         HT  2617  TIP3    H2 24059   0.417000   1.008000
24060         OT  2618  TIP3   OH2 24060  -0.834000  15.999400
24061         HT  2618  TIP3    H1 24061   0.417000   1.008000
24062         HT  2618  TIP3    H2 24062   0.417000   1.008000
24063         OT  2619  TIP3   OH2 24063  -0.834000  15.999400
24064         HT  2619  TIP3    H1 24064   0.417000   1.008000
24065         HT  2619  TIP3    H2 24065   0.417000   1.008000
24066         OT  2620  TIP3   OH2 24066  -0.834000  15.999400
24067         HT  2620  TIP3    H1 24067   0.417000   1.008000
24068         HT  2620  TIP3    H2 24068   0.417000   1.008000
24069         OT  2621  TIP3   OH2 24069  -0.834000  15.999400
24070         HT  2621  TIP3    H1 24070   0.417000   1.008000
24071         HT  2621  TIP3    H2 24071   0.417000   1.008000
24072         OT  2622  TIP3   OH2 24072  -0.834000  15.999400
24073         HT  2622  TIP3    H1 24073   0.417000   1.008000
24074         HT  2622  TIP3    H2 24074   0.417000   1.008000
24075         OT  2623  TIP3   OH2 24075  -0.834000  15.999400
24076         HT  2623  TIP3    H1 24076   0.417000   1.008000
24077         HT  2623  TIP3    H2 24077   0.417000   1.008000
24078         OT  2624  TIP3   OH2 24078  -0.834000  15.999400
24079         HT  2624  TIP3    H1 24079   0.417000   1.008000
24080         HT  2624  TIP3    H2 24080   0.417000   1.008000
24081         OT  2625  TIP3   OH2 24081  -0.834000  15.999400
24082         HT  2625  TIP3    H1 24082   0.417000   1.008000
24083         HT  2625  TIP3    H2 24083   0.417000   1.008000
24084         OT  2626  TIP3   OH2 24084  -0.834000  15.999400
24085         HT  2626  TIP3    H1 24085   0.417000   1.008000
24086         HT  2626  TIP3    H2 24086   0.417000   1.008000
24087         OT  2627  TIP3   OH2 24087  -0.834000  15.999400
24088         HT  2627  TIP3    H1 24088   0.417000   1.008000
24089         HT  2627  TIP3    H2 24089   0.417000   1.008000
24090         OT  2628  TIP3   OH2 24090  -0.834000  15.999400
24091         HT  2628  TIP3    H1 24091   0.417000   1.008000
24092         HT  2628  TIP3    H2 24092   0.417000   1.008000
24093         OT  2629  TIP3   OH2 24093  -0.834000  15.999400
24094         HT  2629  TIP3    H1 24094   0.417000   1.008000
24095         HT  2629  TIP3    H2 24095   0.417000   1.008000
24096         OT  2630  TIP3   OH2 24096  -0.834000  15.999400
24097         HT  2630  TIP3    H1 24097   0.417000   1.008000
24098         HT  2630  TIP3    H2 24098   0.417000   1.008000
24099         OT  2631  TIP3   OH2 24099  -0.834000  15.999400
24100         HT  2631  TIP3    H1 24100   0.417000   1.008000
24101         HT  2631  TIP3    H2 24101   0.417000   1.008000
24102         OT  2632  TIP3   OH2 24102  -0.834000  15.999400
24103         HT  2632  TIP3    H1 24103   0.417000   1.008000
24104         HT  2632  TIP3    H2 24104   0.417000   1.008000
24105         OT  2633  TIP3   OH2 24105  -0.834000  15.999400
24106         HT  2633  TIP3    H1 24106   0.417000   1.008000
24107         HT  2633  TIP3    H2 24107   0.417000   1.008000
24108         OT  2634  TIP3   OH2 24108  -0.834000  15.999400
24109         HT  2634  TIP3    H1 24109   0.417000   1.008000
24110         HT  2634  TIP3    H2 24110   0.417000   1.008000
24111         OT  2635  TIP3   OH2 24111  -0.834000  15.999400
24112         HT  2635  TIP3    H1 24112   0.417000   1.008000
24113         HT  2635  TIP3    H2 24113   0.417000   1.008000
24114         OT  2636  TIP3   OH2 24114  -0.834000  15.999400
24115         HT  2636  TIP3    H1 24115   0.417000   1.008000
24116         HT  2636  TIP3    H2 24116   0.417000   1.008000
24117         OT  2637  TIP3   OH2 24117  -0.834000  15.999400
24118         HT  2637  TIP3    H1 24118   0.417000   1.008000
24119         HT  2637  TIP3    H2 24119   0.417000   1.008000
24120         OT  2638  TIP3   OH2 24120  -0.834000  15.999400
24121         HT  2638  TIP3    H1 24121   0.417000   1.008000
24122         HT  2638  TIP3    H2 24122   0.417000   1.008000
24123         OT  2639  TIP3   OH2 24123  -0.834000  15.999400
24124         HT  2639  TIP3    H1 24124   0.417000   1.008000
24125         HT  2639  TIP3    H2 24125   0.417000   1.008000
24126         OT  2640  TIP3   OH2 24126  -0.834000  15.999400
24127         HT  2640  TIP3    H1 24127   0.417000   1.008000
24128         HT  2640  TIP3    H2 24128   0.417000   1.008000
24129         OT  2641  TIP3   OH2 24129  -0.834000  15.999400
24130         HT  2641  TIP3    H1 24130   0.417000   1.008000
24131         HT  2641  TIP3    H2 24131   0.417000   1.008000
24132         OT  2642  TIP3   OH2 24132  -0.834000  15.999400
24133         HT  2642  TIP3    H1 24133   0.417000   1.008000
24134         HT  2642  TIP3    H2 24134   0.417000   1.008000
24135         OT  2643  TIP3   OH2 24135  -0.834000  15.999400
24136         HT  2643  TIP3    H1 24136   0.417000   1.008000
24137         HT  2643  TIP3    H2 24137   0.417000   1.008000
24138         OT  2644  TIP3   OH2 24138  -0.834000  15.999400
24139         HT  2644  TIP3    H1 24139   0.417000   1.008000
24140         HT  2644  TIP3    H2 24140   0.417000   1.008000
24141         OT  2645  TIP3   OH2 24141  -0.834000  15.999400
24142         HT  2645  TIP3    H1 24142   0.417000   1.008000
24143         HT  2645  TIP3    H2 24143   0.417000   1.008000
24144         OT  2646  TIP3   OH2 24144  -0.834000  15.999400
24145         HT  2646  TIP3    H1 24145   0.417000   1.008000
24146         HT  2646  TIP3    H2 24146   0.417000   1.008000
24147         OT  2647  TIP3   OH2 24147  -0.834000  15.999400
24148         HT  2647  TIP3    H1 24148   0.417000   1.008000
24149         HT  2647  TIP3    H2 24149   0.417000   1.008000
24150         OT  2648  TIP3   OH2 24150  -0.834000  15.999400
24151         HT  2648  TIP3    H1 24151   0.417000   1.008000
24152         HT  2648  TIP3    H2 24152   0.417000   1.008000
24153         OT  2649  TIP3   OH2 24153  -0.834000  15.999400
24154         HT  2649  TIP3    H1 24154   0.417000   1.008000
24155         HT  2649  TIP3    H2 24155   0.417000   1.008000
24156         OT  2650  TIP3   OH2 24156  -0.834000  15.999400
24157         HT  2650  TIP3    H1 24157   0.417000   1.008000
24158         HT  2650  TIP3    H2 24158   0.417000   1.008000
24159         OT  2651  TIP3   OH2 24159  -0.834000  15.999400
24160         HT  2651  TIP3    H1 24160   0.417000   1.008000
24161         HT  2651  TIP3    H2 24161   0.417000   1.008000
24162         OT  2652  TIP3   OH2 24162  -0.834000  15.999400
24163         HT  2652  TIP3    H1 24163   0.417000   1.008000
24164         HT  2652  TIP3    H2 24164   0.417000   1.008000
24165         OT  2653  TIP3   OH2 24165  -0.834000  15.999400
24166         HT  2653  TIP3    H1 24166   0.417000   1.008000
24167         HT  2653  TIP3    H2 24167   0.417000   1.008000
24168         OT  2654  TIP3   OH2 24168  -0.834000  15.999400
24169         HT  2654  TIP3    H1 24169   0.417000   1.008000
24170         HT  2654  TIP3    H2 24170   0.417000   1.008000
24171         OT  2655  TIP3   OH2 24171  -0.834000  15.999400
24172         HT  2655  TIP3    H1 24172   0.417000   1.008000
24173         HT  2655  TIP3    H2 24173   0.417000   1.008000
24174         OT  2656  TIP3   OH2 24174  -0.834000  15.999400
24175         HT  2656  TIP3    H1 24175   0.417000   1.008000
24176         HT  2656  TIP3    H2 24176   0.417000   1.008000
24177         OT  2657  TIP3   OH2 24177  -0.834000  15.999400
24178         HT  2657  TIP3    H1 24178   0.417000   1.008000
24179         HT  2657  TIP3    H2 24179   0.417000   1.008000
24180         OT  2658  TIP3   OH2 24180  -0.834000  15.999400
24181         HT  2658  TIP3    H1 24181   0.417000   1.008000
24182         HT  2658  TIP3    H2 24182   0.417000   1.008000
24183         OT  2659  TIP3   OH2 24183  -0.834000  15.999400
24184         HT  2659  TIP3    H1 24184   0.417000   1.008000
24185         HT  2659  TIP3    H2 24185   0.417000   1.008000
24186         OT  2660  TIP3   OH2 24186  -0.834000  15.999400
24187         HT  2660  TIP3    H1 24187   0.417000   1.008000
24188         HT  2660  TIP3    H2 24188   0.417000   1.008000
24189         OT  2661  TIP3   OH2 24189  -0.834000  15.999400
24190         HT  2661  TIP3    H1 24190   0.417000   1.008000
24191         HT  2661  TIP3    H2 24191   0.417000   1.008000
24192         OT  2662  TIP3   OH2 24192  -0.834000  15.999400
24193         HT  2662  TIP3    H1 24193   0.417000   1.008000
24194         HT  2662  TIP3    H2 24194   0.417000   1.008000
24195         OT  2663  TIP3   OH2 24195  -0.834000  15.999400
24196         HT  2663  TIP3    H1 24196   0.417000   1.008000
24197         HT  2663  TIP3    H2 24197   0.417000   1.008000
24198         OT  2664  TIP3   OH2 24198  -0.834000  15.999400
24199         HT  2664  TIP3    H1 24199   0.417000   1.008000
24200         HT  2664  TIP3    H2 24200   0.417000   1.008000
24201         OT  2665  TIP3   OH2 24201  -0.834000  15.999400
24202         HT  2665  TIP3    H1 24202   0.417000   1.008000
24203         HT  2665  TIP3    H2 24203   0.417000   1.008000
24204         OT  2666  TIP3   OH2 24204  -0.834000  15.999400
24205         HT  2666  TIP3    H1 24205   0.417000   1.008000
24206         HT  2666  TIP3    H2 24206   0.417000   1.008000
24207         OT  2667  TIP3   OH2 24207  -0.834000  15.999400
24208         HT  2667  TIP3    H1 24208   0.417000   1.008000
24209         HT  2667  TIP3    H2 24209   0.417000   1.008000
24210         OT  2668  TIP3   OH2 24210  -0.834000  15.999400
24211         HT  2668  TIP3    H1 24211   0.417000   1.008000
24212         HT  2668  TIP3    H2 24212   0.417000   1.008000
24213         OT  2669  TIP3   OH2 24213  -0.834000  15.999400
24214         HT  2669  TIP3    H1 24214   0.417000   1.008000
24215         HT  2669  TIP3    H2 24215   0.417000   1.008000
24216         OT  2670  TIP3   OH2 24216  -0.834000  15.999400
24217         HT  2670  TIP3    H1 24217   0.417000   1.008000
24218         HT  2670  TIP3    H2 24218   0.417000   1.008000
24219         OT  2671  TIP3   OH2 24219  -0.834000  15.999400
24220         HT  2671  TIP3    H1 24220   0.417000   1.008000
24221         HT  2671  TIP3    H2 24221   0.417000   1.008000
24222         OT  2672  TIP3   OH2 24222  -0.834000  15.999400
24223         HT  2672  TIP3    H1 24223   0.417000   1.008000
24224         HT  2672  TIP3    H2 24224   0.417000   1.008000
24225         OT  2673  TIP3   OH2 24225  -0.834000  15.999400
24226         HT  2673  TIP3    H1 24226   0.417000   1.008000
24227         HT  2673  TIP3    H2 24227   0.417000   1.008000
24228         OT  2674  TIP3   OH2 24228  -0.834000  15.999400
24229         HT  2674  TIP3    H1 24229   0.417000   1.008000
24230         HT  2674  TIP3    H2 24230   0.417000   1.008000
24231         OT  2675  TIP3   OH2 24231  -0.834000  15.999400
24232         HT  2675  TIP3    H1 24232   0.417000   1.008000
24233         HT  2675  TIP3    H2 24233   0.417000   1.008000
24234         OT  2676  TIP3   OH2 24234  -0.834000  15.999400
24235         HT  2676  TIP3    H1 24235   0.417000   1.008000
24236         HT  2676  TIP3    H2 24236   0.417000   1.008000
24237         OT  2677  TIP3   OH2 24237  -0.834000  15.999400
24238         HT  2677  TIP3    H1 24238   0.417000   1.008000
24239         HT  2677  TIP3    H2 24239   0.417000   1.008000
24240         OT  2678  TIP3   OH2 24240  -0.834000  15.999400
24241         HT  2678  TIP3    H1 24241   0.417000   1.008000
24242         HT  2678  TIP3    H2 24242   0.417000   1.008000
24243         OT  2679  TIP3   OH2 24243  -0.834000  15.999400
24244         HT  2679  TIP3    H1 24244   0.417000   1.008000
24245         HT  2679  TIP3    H2 24245   0.417000   1.008000
24246         OT  2680  TIP3   OH2 24246  -0.834000  15.999400
24247         HT  2680  TIP3    H1 24247   0.417000   1.008000
24248         HT  2680  TIP3    H2 24248   0.417000   1.008000
24249         OT  2681  TIP3   OH2 24249  -0.834000  15.999400
24250         HT  2681  TIP3    H1 24250   0.417000   1.008000
24251         HT  2681  TIP3    H2 24251   0.417000   1.008000
24252         OT  2682  TIP3   OH2 24252  -0.834000  15.999400
24253         HT  2682  TIP3    H1 24253   0.417000   1.008000
24254         HT  2682  TIP3    H2 24254   0.417000   1.008000
24255         OT  2683  TIP3   OH2 24255  -0.834000  15.999400
24256         HT  2683  TIP3    H1 24256   0.417000   1.008000
24257         HT  2683  TIP3    H2 24257   0.417000   1.008000
24258         OT  2684  TIP3   OH2 24258  -0.834000  15.999400
24259         HT  2684  TIP3    H1 24259   0.417000   1.008000
24260         HT  2684  TIP3    H2 24260   0.417000   1.008000
24261         OT  2685  TIP3   OH2 24261  -0.834000  15.999400
24262         HT  2685  TIP3    H1 24262   0.417000   1.008000
24263         HT  2685  TIP3    H2 24263   0.417000   1.008000
24264         OT  2686  TIP3   OH2 24264  -0.834000  15.999400
24265         HT  2686  TIP3    H1 24265   0.417000   1.008000
24266         HT  2686  TIP3    H2 24266   0.417000   1.008000
24267         OT  2687  TIP3   OH2 24267  -0.834000  15.999400
24268         HT  2687  TIP3    H1 24268   0.417000   1.008000
24269         HT  2687  TIP3    H2 24269   0.417000   1.008000
24270         OT  2688  TIP3   OH2 24270  -0.834000  15.999400
24271         HT  2688  TIP3    H1 24271   0.417000   1.008000
24272         HT  2688  TIP3    H2 24272   0.417000   1.008000
24273         OT  2689  TIP3   OH2 24273  -0.834000  15.999400
24274         HT  2689  TIP3    H1 24274   0.417000   1.008000
24275         HT  2689  TIP3    H2 24275   0.417000   1.008000
24276         OT  2690  TIP3   OH2 24276  -0.834000  15.999400
24277         HT  2690  TIP3    H1 24277   0.417000   1.008000
24278         HT  2690  TIP3    H2 24278   0.417000   1.008000
24279         OT  2691  TIP3   OH2 24279  -0.834000  15.999400
24280         HT  2691  TIP3    H1 24280   0.417000   1.008000
24281         HT  2691  TIP3    H2 24281   0.417000   1.008000
24282         OT  2692  TIP3   OH2 24282  -0.834000  15.999400
24283         HT  2692  TIP3    H1 24283   0.417000   1.008000
24284         HT  2692  TIP3    H2 24284   0.417000   1.008000
24285         OT  2693  TIP3   OH2 24285  -0.834000  15.999400
24286         HT  2693  TIP3    H1 24286   0.417000   1.008000
24287         HT  2693  TIP3    H2 24287   0.417000   1.008000
24288         OT  2694  TIP3   OH2 24288  -0.834000  15.999400
24289         HT  2694  TIP3    H1 24289   0.417000   1.008000
24290         HT  2694  TIP3    H2 24290   0.417000   1.008000
24291         OT  2695  TIP3   OH2 24291  -0.834000  15.999400
24292         HT  2695  TIP3    H1 24292   0.417000   1.008000
24293         HT  2695  TIP3    H2 24293   0.417000   1.008000
24294         OT  2696  TIP3   OH2 24294  -0.834000  15.999400
24295         HT  2696  TIP3    H1 24295   0.417000   1.008000
24296         HT  2696  TIP3    H2 24296   0.417000   1.008000
24297         OT  2697  TIP3   OH2 24297  -0.834000  15.999400
24298         HT  2697  TIP3    H1 24298   0.417000   1.008000
24299         HT  2697  TIP3    H2 24299   0.417000   1.008000
24300         OT  2698  TIP3   OH2 24300  -0.834000  15.999400
24301         HT  2698  TIP3    H1 24301   0.417000   1.008000
24302         HT  2698  TIP3    H2 24302   0.417000   1.008000
24303         OT  2699  TIP3   OH2 24303  -0.834000  15.999400
24304         HT  2699  TIP3    H1 24304   0.417000   1.008000
24305         HT  2699  TIP3    H2 24305   0.417000   1.008000
24306         OT  2700  TIP3   OH2 24306  -0.834000  15.999400
24307         HT  2700  TIP3    H1 24307   0.417000   1.008000
24308         HT  2700  TIP3    H2 24308   0.417000   1.008000
24309         OT  2701  TIP3   OH2 24309  -0.834000  15.999400
24310         HT  2701  TIP3    H1 24310   0.417000   1.008000
24311         HT  2701  TIP3    H2 24311   0.417000   1.008000
24312         OT  2702  TIP3   OH2 24312  -0.834000  15.999400
24313         HT  2702  TIP3    H1 24313   0.417000   1.008000
24314         HT  2702  TIP3    H2 24314   0.417000   1.008000
24315         OT  2703  TIP3   OH2 24315  -0.834000  15.999400
24316         HT  2703  TIP3    H1 24316   0.417000   1.008000
24317         HT  2703  TIP3    H2 24317   0.417000   1.008000
24318         OT  2704  TIP3   OH2 24318  -0.834000  15.999400
24319         HT  2704  TIP3    H1 24319   0.417000   1.008000
24320         HT  2704  TIP3    H2 24320   0.417000   1.008000
24321         OT  2705  TIP3   OH2 24321  -0.834000  15.999400
24322         HT  2705  TIP3    H1 24322   0.417000   1.008000
24323         HT  2705  TIP3    H2 24323   0.417000   1.008000
24324         OT  2706  TIP3   OH2 24324  -0.834000  15.999400
24325         HT  2706  TIP3    H1 24325   0.417000   1.008000
24326         HT  2706  TIP3    H2 24326   0.417000   1.008000
24327         OT  2707  TIP3   OH2 24327  -0.834000  15.999400
24328         HT  2707  TIP3    H1 24328   0.417000   1.008000
24329         HT  2707  TIP3    H2 24329   0.417000   1.008000
24330         OT  2708  TIP3   OH2 24330  -0.834000  15.999400
24331         HT  2708  TIP3    H1 24331   0.417000   1.008000
24332         HT  2708  TIP3    H2 24332   0.417000   1.008000
24333         OT  2709  TIP3   OH2 24333  -0.834000  15.999400
24334         HT  2709  TIP3    H1 24334   0.417000   1.008000
24335         HT  2709  TIP3    H2 24335   0.417000   1.008000
24336         OT  2710  TIP3   OH2 24336  -0.834000  15.999400
24337         HT  2710  TIP3    H1 24337   0.417000   1.008000
24338         HT  2710  TIP3    H2 24338   0.417000   1.008000
24339         OT  2711  TIP3   OH2 24339  -0.834000  15.999400
24340         HT  2711  TIP3    H1 24340   0.417000   1.008000
24341         HT  2711  TIP3    H2 24341   0.417000   1.008000
24342         OT  2712  TIP3   OH2 24342  -0.834000  15.999400
24343         HT  2712  TIP3    H1 24343   0.417000   1.008000
24344         HT  2712  TIP3    H2 24344   0.417000   1.008000
24345         OT  2713  TIP3   OH2 24345  -0.834000  15.999400
24346         HT  2713  TIP3    H1 24346   0.417000   1.008000
24347         HT  2713  TIP3    H2 24347   0.417000   1.008000
24348         OT  2714  TIP3   OH2 24348  -0.834000  15.999400
24349         HT  2714  TIP3    H1 24349   0.417000   1.008000
24350         HT  2714  TIP3    H2 24350   0.417000   1.008000
24351         OT  2715  TIP3   OH2 24351  -0.834000  15.999400
24352         HT  2715  TIP3    H1 24352   0.417000   1.008000
24353         HT  2715  TIP3    H2 24353   0.417000   1.008000
24354         OT  2716  TIP3   OH2 24354  -0.834000  15.999400
24355         HT  2716  TIP3    H1 24355   0.417000   1.008000
24356         HT  2716  TIP3    H2 24356   0.417000   1.008000
24357         OT  2717  TIP3   OH2 24357  -0.834000  15.999400
24358         HT  2717  TIP3    H1 24358   0.417000   1.008000
24359         HT  2717  TIP3    H2 24359   0.417000   1.008000
24360         OT  2718  TIP3   OH2 24360  -0.834000  15.999400
24361         HT  2718  TIP3    H1 24361   0.417000   1.008000
24362         HT  2718  TIP3    H2 24362   0.417000   1.008000
24363         OT  2719  TIP3   OH2 24363  -0.834000  15.999400
24364         HT  2719  TIP3    H1 24364   0.417000   1.008000
24365         HT  2719  TIP3    H2 24365   0.417000   1.008000
24366         OT  2720  TIP3   OH2 24366  -0.834000  15.999400
24367         HT  2720  TIP3    H1 24367   0.417000   1.008000
24368         HT  2720  TIP3    H2 24368   0.417000   1.008000
24369         OT  2721  TIP3   OH2 24369  -0.834000  15.999400
24370         HT  2721  TIP3    H1 24370   0.417000   1.008000
24371         HT  2721  TIP3    H2 24371   0.417000   1.008000
24372         OT  2722  TIP3   OH2 24372  -0.834000  15.999400
24373         HT  2722  TIP3    H1 24373   0.417000   1.008000
24374         HT  2722  TIP3    H2 24374   0.417000   1.008000
24375         OT  2723  TIP3   OH2 24375  -0.834000  15.999400
24376         HT  2723  TIP3    H1 24376   0.417000   1.008000
24377         HT  2723  TIP3    H2 24377   0.417000   1.008000
24378         OT  2724  TIP3   OH2 24378  -0.834000  15.999400
24379         HT  2724  TIP3    H1 24379   0.417000   1.008000
24380         HT  2724  TIP3    H2 24380   0.417000   1.008000
24381         OT  2725  TIP3   OH2 24381  -0.834000  15.999400
24382         HT  2725  TIP3    H1 24382   0.417000   1.008000
24383         HT  2725  TIP3    H2 24383   0.417000   1.008000
24384         OT  2726  TIP3   OH2 24384  -0.834000  15.999400
24385         HT  2726  TIP3    H1 24385   0.417000   1.008000
24386         HT  2726  TIP3    H2 24386   0.417000   1.008000
24387         OT  2727  TIP3   OH2 24387  -0.834000  15.999400
24388         HT  2727  TIP3    H1 24388   0.417000   1.008000
24389         HT  2727  TIP3    H2 24389   0.417000   1.008000
24390         OT  2728  TIP3   OH2 24390  -0.834000  15.999400
24391         HT  2728  TIP3    H1 24391   0.417000   1.008000
24392         HT  2728  TIP3    H2 24392   0.417000   1.008000
24393         OT  2729  TIP3   OH2 24393  -0.834000  15.999400
24394         HT  2729  TIP3    H1 24394   0.417000   1.008000
24395         HT  2729  TIP3    H2 24395   0.417000   1.008000
24396         OT  2730  TIP3   OH2 24396  -0.834000  15.999400
24397         HT  2730  TIP3    H1 24397   0.417000   1.008000
24398         HT  2730  TIP3    H2 24398   0.417000   1.008000
24399         OT  2731  TIP3   OH2 24399  -0.834000  15.999400
24400         HT  2731  TIP3    H1 24400   0.417000   1.008000
24401         HT  2731  TIP3    H2 24401   0.417000   1.008000
24402         OT  2732  TIP3   OH2 24402  -0.834000  15.999400
24403         HT  2732  TIP3    H1 24403   0.417000   1.008000
24404         HT  2732  TIP3    H2 24404   0.417000   1.008000
24405         OT  2733  TIP3   OH2 24405  -0.834000  15.999400
24406         HT  2733  TIP3    H1 24406   0.417000   1.008000
24407         HT  2733  TIP3    H2 24407   0.417000   1.008000
24408         OT  2734  TIP3   OH2 24408  -0.834000  15.999400
24409         HT  2734  TIP3    H1 24409   0.417000   1.008000
24410         HT  2734  TIP3    H2 24410   0.417000   1.008000
24411         OT  2735  TIP3   OH2 24411  -0.834000  15.999400
24412         HT  2735  TIP3    H1 24412   0.417000   1.008000
24413         HT  2735  TIP3    H2 24413   0.417000   1.008000
24414         OT  2736  TIP3   OH2 24414  -0.834000  15.999400
24415         HT  2736  TIP3    H1 24415   0.417000   1.008000
24416         HT  2736  TIP3    H2 24416   0.417000   1.008000
24417         OT  2737  TIP3   OH2 24417  -0.834000  15.999400
24418         HT  2737  TIP3    H1 24418   0.417000   1.008000
24419         HT  2737  TIP3    H2 24419   0.417000   1.008000
24420         OT  2738  TIP3   OH2 24420  -0.834000  15.999400
24421         HT  2738  TIP3    H1 24421   0.417000   1.008000
24422         HT  2738  TIP3    H2 24422   0.417000   1.008000
24423         OT  2739  TIP3   OH2 24423  -0.834000  15.999400
24424         HT  2739  TIP3    H1 24424   0.417000   1.008000
24425         HT  2739  TIP3    H2 24425   0.417000   1.008000
24426         OT  2740  TIP3   OH2 24426  -0.834000  15.999400
24427         HT  2740  TIP3    H1 24427   0.417000   1.008000
24428         HT  2740  TIP3    H2 24428   0.417000   1.008000
24429         OT  2741  TIP3   OH2 24429  -0.834000  15.999400
24430         HT  2741  TIP3    H1 24430   0.417000   1.008000
24431         HT  2741  TIP3    H2 24431   0.417000   1.008000
24432         OT  2742  TIP3   OH2 24432  -0.834000  15.999400
24433         HT  2742  TIP3    H1 24433   0.417000   1.008000
24434         HT  2742  TIP3    H2 24434   0.417000   1.008000
24435         OT  2743  TIP3   OH2 24435  -0.834000  15.999400
24436         HT  2743  TIP3    H1 24436   0.417000   1.008000
24437         HT  2743  TIP3    H2 24437   0.417000   1.008000
24438         OT  2744  TIP3   OH2 24438  -0.834000  15.999400
24439         HT  2744  TIP3    H1 24439   0.417000   1.008000
24440         HT  2744  TIP3    H2 24440   0.417000   1.008000
24441         OT  2745  TIP3   OH2 24441  -0.834000  15.999400
24442         HT  2745  TIP3    H1 24442   0.417000   1.008000
24443         HT  2745  TIP3    H2 24443   0.417000   1.008000
24444         OT  2746  TIP3   OH2 24444  -0.834000  15.999400
24445         HT  2746  TIP3    H1 24445   0.417000   1.008000
24446         HT  2746  TIP3    H2 24446   0.417000   1.008000
24447         OT  2747  TIP3   OH2 24447  -0.834000  15.999400
24448         HT  2747  TIP3    H1 24448   0.417000   1.008000
24449         HT  2747  TIP3    H2 24449   0.417000   1.008000
24450         OT  2748  TIP3   OH2 24450  -0.834000  15.999400
24451         HT  2748  TIP3    H1 24451   0.417000   1.008000
24452         HT  2748  TIP3    H2 24452   0.417000   1.008000
24453         OT  2749  TIP3   OH2 24453  -0.834000  15.999400
24454         HT  2749  TIP3    H1 24454   0.417000   1.008000
24455         HT  2749  TIP3    H2 24455   0.417000   1.008000
24456         OT  2750  TIP3   OH2 24456  -0.834000  15.999400
24457         HT  2750  TIP3    H1 24457   0.417000   1.008000
24458         HT  2750  TIP3    H2 24458   0.417000   1.008000
24459         OT  2751  TIP3   OH2 24459  -0.834000  15.999400
24460         HT  2751  TIP3    H1 24460   0.417000   1.008000
24461         HT  2751  TIP3    H2 24461   0.417000   1.008000
24462         OT  2752  TIP3   OH2 24462  -0.834000  15.999400
24463         HT  2752  TIP3    H1 24463   0.417000   1.008000
24464         HT  2752  TIP3    H2 24464   0.417000   1.008000
24465         OT  2753  TIP3   OH2 24465  -0.834000  15.999400
24466         HT  2753  TIP3    H1 24466   0.417000   1.008000
24467         HT  2753  TIP3    H2 24467   0.417000   1.008000
24468         OT  2754  TIP3   OH2 24468  -0.834000  15.999400
24469         HT  2754  TIP3    H1 24469   0.417000   1.008000
24470         HT  2754  TIP3    H2 24470   0.417000   1.008000
24471         OT  2755  TIP3   OH2 24471  -0.834000  15.999400
24472         HT  2755  TIP3    H1 24472   0.417000   1.008000
24473         HT  2755  TIP3    H2 24473   0.417000   1.008000
24474         OT  2756  TIP3   OH2 24474  -0.834000  15.999400
24475         HT  2756  TIP3    H1 24475   0.417000   1.008000
24476         HT  2756  TIP3    H2 24476   0.417000   1.008000
24477         OT  2757  TIP3   OH2 24477  -0.834000  15.999400
24478         HT  2757  TIP3    H1 24478   0.417000   1.008000
24479         HT  2757  TIP3    H2 24479   0.417000   1.008000
24480         OT  2758  TIP3   OH2 24480  -0.834000  15.999400
24481         HT  2758  TIP3    H1 24481   0.417000   1.008000
24482         HT  2758  TIP3    H2 24482   0.417000   1.008000
24483         OT  2759  TIP3   OH2 24483  -0.834000  15.999400
24484         HT  2759  TIP3    H1 24484   0.417000   1.008000
24485         HT  2759  TIP3    H2 24485   0.417000   1.008000
24486         OT  2760  TIP3   OH2 24486  -0.834000  15.999400
24487         HT  2760  TIP3    H1 24487   0.417000   1.008000
24488         HT  2760  TIP3    H2 24488   0.417000   1.008000
24489         OT  2761  TIP3   OH2 24489  -0.834000  15.999400
24490         HT  2761  TIP3    H1 24490   0.417000   1.008000
24491         HT  2761  TIP3    H2 24491   0.417000   1.008000
24492         OT  2762  TIP3   OH2 24492  -0.834000  15.999400
24493         HT  2762  TIP3    H1 24493   0.417000   1.008000
24494         HT  2762  TIP3    H2 24494   0.417000   1.008000
24495         OT  2763  TIP3   OH2 24495  -0.834000  15.999400
24496         HT  2763  TIP3    H1 24496   0.417000   1.008000
24497         HT  2763  TIP3    H2 24497   0.417000   1.008000
24498         OT  2764  TIP3   OH2 24498  -0.834000  15.999400
24499         HT  2764  TIP3    H1 24499   0.417000   1.008000
24500         HT  2764  TIP3    H2 24500   0.417000   1.008000
24501         OT  2765  TIP3   OH2 24501  -0.834000  15.999400
24502         HT  2765  TIP3    H1 24502   0.417000   1.008000
24503         HT  2765  TIP3    H2 24503   0.417000   1.008000
24504         OT  2766  TIP3   OH2 24504  -0.834000  15.999400
24505         HT  2766  TIP3    H1 24505   0.417000   1.008000
24506         HT  2766  TIP3    H2 24506   0.417000   1.008000
24507         OT  2767  TIP3   OH2 24507  -0.834000  15.999400
24508         HT  2767  TIP3    H1 24508   0.417000   1.008000
24509         HT  2767  TIP3    H2 24509   0.417000   1.008000
24510         OT  2768  TIP3   OH2 24510  -0.834000  15.999400
24511         HT  2768  TIP3    H1 24511   0.417000   1.008000
24512         HT  2768  TIP3    H2 24512   0.417000   1.008000
24513         OT  2769  TIP3   OH2 24513  -0.834000  15.999400
24514         HT  2769  TIP3    H1 24514   0.417000   1.008000
24515         HT  2769  TIP3    H2 24515   0.417000   1.008000
24516         OT  2770  TIP3   OH2 24516  -0.834000  15.999400
24517         HT  2770  TIP3    H1 24517   0.417000   1.008000
24518         HT  2770  TIP3    H2 24518   0.417000   1.008000
24519         OT  2771  TIP3   OH2 24519  -0.834000  15.999400
24520         HT  2771  TIP3    H1 24520   0.417000   1.008000
24521         HT  2771  TIP3    H2 24521   0.417000   1.008000
24522         OT  2772  TIP3   OH2 24522  -0.834000  15.999400
24523         HT  2772  TIP3    H1 24523   0.417000   1.008000
24524         HT  2772  TIP3    H2 24524   0.417000   1.008000
24525         OT  2773  TIP3   OH2 24525  -0.834000  15.999400
24526         HT  2773  TIP3    H1 24526   0.417000   1.008000
24527         HT  2773  TIP3    H2 24527   0.417000   1.008000
24528         OT  2774  TIP3   OH2 24528  -0.834000  15.999400
24529         HT  2774  TIP3    H1 24529   0.417000   1.008000
24530         HT  2774  TIP3    H2 24530   0.417000   1.008000
24531         OT  2775  TIP3   OH2 24531  -0.834000  15.999400
24532         HT  2775  TIP3    H1 24532   0.417000   1.008000
24533         HT  2775  TIP3    H2 24533   0.417000   1.008000
24534         OT  2776  TIP3   OH2 24534  -0.834000  15.999400
24535         HT  2776  TIP3    H1 24535   0.417000   1.008000
24536         HT  2776  TIP3    H2 24536   0.417000   1.008000
24537         OT  2777  TIP3   OH2 24537  -0.834000  15.999400
24538         HT  2777  TIP3    H1 24538   0.417000   1.008000
24539         HT  2777  TIP3    H2 24539   0.417000   1.008000
24540         OT  2778  TIP3   OH2 24540  -0.834000  15.999400
24541         HT  2778  TIP3    H1 24541   0.417000   1.008000
24542         HT  2778  TIP3    H2 24542   0.417000   1.008000
24543         OT  2779  TIP3   OH2 24543  -0.834000  15.999400
24544         HT  2779  TIP3    H1 24544   0.417000   1.008000
24545         HT  2779  TIP3    H2 24545   0.417000   1.008000
24546         OT  2780  TIP3   OH2 24546  -0.834000  15.999400
24547         HT  2780  TIP3    H1 24547   0.417000   1.008000
24548         HT  2780  TIP3    H2 24548   0.417000   1.008000
24549         OT  2781  TIP3   OH2 24549  -0.834000  15.999400
24550         HT  2781  TIP3    H1 24550   0.417000   1.008000
24551         HT  2781  TIP3    H2 24551   0.417000   1.008000
24552         OT  2782  TIP3   OH2 24552  -0.834000  15.999400
24553         HT  2782  TIP3    H1 24553   0.417000   1.008000
24554         HT  2782  TIP3    H2 24554   0.417000   1.008000
24555         OT  2783  TIP3   OH2 24555  -0.834000  15.999400
24556         HT  2783  TIP3    H1 24556   0.417000   1.008000
24557         HT  2783  TIP3    H2 24557   0.417000   1.008000
24558         OT  2784  TIP3   OH2 24558  -0.834000  15.999400
24559         HT  2784  TIP3    H1 24559   0.417000   1.008000
24560         HT  2784  TIP3    H2 24560   0.417000   1.008000
24561         OT  2785  TIP3   OH2 24561  -0.834000  15.999400
24562         HT  2785  TIP3    H1 24562   0.417000   1.008000
24563         HT  2785  TIP3    H2 24563   0.417000   1.008000
24564         OT  2786  TIP3   OH2 24564  -0.834000  15.999400
24565         HT  2786  TIP3    H1 24565   0.417000   1.008000
24566         HT  2786  TIP3    H2 24566   0.417000   1.008000
24567         OT  2787  TIP3   OH2 24567  -0.834000  15.999400
24568         HT  2787  TIP3    H1 24568   0.417000   1.008000
24569         HT  2787  TIP3    H2 24569   0.417000   1.008000
24570         OT  2788  TIP3   OH2 24570  -0.834000  15.999400
24571         HT  2788  TIP3    H1 24571   0.417000   1.008000
24572         HT  2788  TIP3    H2 24572   0.417000   1.008000
24573         OT  2789  TIP3   OH2 24573  -0.834000  15.999400
24574         HT  2789  TIP3    H1 24574   0.417000   1.008000
24575         HT  2789  TIP3    H2 24575   0.417000   1.008000
24576         OT  2790  TIP3   OH2 24576  -0.834000  15.999400
24577         HT  2790  TIP3    H1 24577   0.417000   1.008000
24578         HT  2790  TIP3    H2 24578   0.417000   1.008000
24579         OT  2791  TIP3   OH2 24579  -0.834000  15.999400
24580         HT  2791  TIP3    H1 24580   0.417000   1.008000
24581         HT  2791  TIP3    H2 24581   0.417000   1.008000
24582         OT  2792  TIP3   OH2 24582  -0.834000  15.999400
24583         HT  2792  TIP3    H1 24583   0.417000   1.008000
24584         HT  2792  TIP3    H2 24584   0.417000   1.008000
24585         OT  2793  TIP3   OH2 24585  -0.834000  15.999400
24586         HT  2793  TIP3    H1 24586   0.417000   1.008000
24587         HT  2793  TIP3    H2 24587   0.417000   1.008000
24588         OT  2794  TIP3   OH2 24588  -0.834000  15.999400
24589         HT  2794  TIP3    H1 24589   0.417000   1.008000
24590         HT  2794  TIP3    H2 24590   0.417000   1.008000
24591         OT  2795  TIP3   OH2 24591  -0.834000  15.999400
24592         HT  2795  TIP3    H1 24592   0.417000   1.008000
24593         HT  2795  TIP3    H2 24593   0.417000   1.008000
24594         OT  2796  TIP3   OH2 24594  -0.834000  15.999400
24595         HT  2796  TIP3    H1 24595   0.417000   1.008000
24596         HT  2796  TIP3    H2 24596   0.417000   1.008000
24597         OT  2797  TIP3   OH2 24597  -0.834000  15.999400
24598         HT  2797  TIP3    H1 24598   0.417000   1.008000
24599         HT  2797  TIP3    H2 24599   0.417000   1.008000
24600         OT  2798  TIP3   OH2 24600  -0.834000  15.999400
24601         HT  2798  TIP3    H1 24601   0.417000   1.008000
24602         HT  2798  TIP3    H2 24602   0.417000   1.008000
24603         OT  2799  TIP3   OH2 24603  -0.834000  15.999400
24604         HT  2799  TIP3    H1 24604   0.417000   1.008000
24605         HT  2799  TIP3    H2 24605   0.417000   1.008000
24606         OT  2800  TIP3   OH2 24606  -0.834000  15.999400
24607         HT  2800  TIP3    H1 24607   0.417000   1.008000
24608         HT  2800  TIP3    H2 24608   0.417000   1.008000
24609         OT  2801  TIP3   OH2 24609  -0.834000  15.999400
24610         HT  2801  TIP3    H1 24610   0.417000   1.008000
24611         HT  2801  TIP3    H2 24611   0.417000   1.008000
24612         OT  2802  TIP3   OH2 24612  -0.834000  15.999400
24613         HT  2802  TIP3    H1 24613   0.417000   1.008000
24614         HT  2802  TIP3    H2 24614   0.417000   1.008000
24615         OT  2803  TIP3   OH2 24615  -0.834000  15.999400
24616         HT  2803  TIP3    H1 24616   0.417000   1.008000
24617         HT  2803  TIP3    H2 24617   0.417000   1.008000
24618         OT  2804  TIP3   OH2 24618  -0.834000  15.999400
24619         HT  2804  TIP3    H1 24619   0.417000   1.008000
24620         HT  2804  TIP3    H2 24620   0.417000   1.008000
24621         OT  2805  TIP3   OH2 24621  -0.834000  15.999400
24622         HT  2805  TIP3    H1 24622   0.417000   1.008000
24623         HT  2805  TIP3    H2 24623   0.417000   1.008000
24624         OT  2806  TIP3   OH2 24624  -0.834000  15.999400
24625         HT  2806  TIP3    H1 24625   0.417000   1.008000
24626         HT  2806  TIP3    H2 24626   0.417000   1.008000
24627         OT  2807  TIP3   OH2 24627  -0.834000  15.999400
24628         HT  2807  TIP3    H1 24628   0.417000   1.008000
24629         HT  2807  TIP3    H2 24629   0.417000   1.008000
24630         OT  2808  TIP3   OH2 24630  -0.834000  15.999400
24631         HT  2808  TIP3    H1 24631   0.417000   1.008000
24632         HT  2808  TIP3    H2 24632   0.417000   1.008000
24633         OT  2809  TIP3   OH2 24633  -0.834000  15.999400
24634         HT  2809  TIP3    H1 24634   0.417000   1.008000
24635         HT  2809  TIP3    H2 24635   0.417000   1.008000
24636         OT  2810  TIP3   OH2 24636  -0.834000  15.999400
24637         HT  2810  TIP3    H1 24637   0.417000   1.008000
24638         HT  2810  TIP3    H2 24638   0.417000   1.008000
24639         OT  2811  TIP3   OH2 24639  -0.834000  15.999400
24640         HT  2811  TIP3    H1 24640   0.417000   1.008000
24641         HT  2811  TIP3    H2 24641   0.417000   1.008000
24642         OT  2812  TIP3   OH2 24642  -0.834000  15.999400
24643         HT  2812  TIP3    H1 24643   0.417000   1.008000
24644         HT  2812  TIP3    H2 24644   0.417000   1.008000
24645         OT  2813  TIP3   OH2 24645  -0.834000  15.999400
24646         HT  2813  TIP3    H1 24646   0.417000   1.008000
24647         HT  2813  TIP3    H2 24647   0.417000   1.008000
24648         OT  2814  TIP3   OH2 24648  -0.834000  15.999400
24649         HT  2814  TIP3    H1 24649   0.417000   1.008000
24650         HT  2814  TIP3    H2 24650   0.417000   1.008000
24651         OT  2815  TIP3   OH2 24651  -0.834000  15.999400
24652         HT  2815  TIP3    H1 24652   0.417000   1.008000
24653         HT  2815  TIP3    H2 24653   0.417000   1.008000
24654         OT  2816  TIP3   OH2 24654  -0.834000  15.999400
24655         HT  2816  TIP3    H1 24655   0.417000   1.008000
24656         HT  2816  TIP3    H2 24656   0.417000   1.008000
24657         OT  2817  TIP3   OH2 24657  -0.834000  15.999400
24658         HT  2817  TIP3    H1 24658   0.417000   1.008000
24659         HT  2817  TIP3    H2 24659   0.417000   1.008000
24660         OT  2818  TIP3   OH2 24660  -0.834000  15.999400
24661         HT  2818  TIP3    H1 24661   0.417000   1.008000
24662         HT  2818  TIP3    H2 24662   0.417000   1.008000
24663         OT  2819  TIP3   OH2 24663  -0.834000  15.999400
24664         HT  2819  TIP3    H1 24664   0.417000   1.008000
24665         HT  2819  TIP3    H2 24665   0.417000   1.008000
24666         OT  2820  TIP3   OH2 24666  -0.834000  15.999400
24667         HT  2820  TIP3    H1 24667   0.417000   1.008000
24668         HT  2820  TIP3    H2 24668   0.417000   1.008000
24669         OT  2821  TIP3   OH2 24669  -0.834000  15.999400
24670         HT  2821  TIP3    H1 24670   0.417000   1.008000
24671         HT  2821  TIP3    H2 24671   0.417000   1.008000
24672         OT  2822  TIP3   OH2 24672  -0.834000  15.999400
24673         HT  2822  TIP3    H1 24673   0.417000   1.008000
24674         HT  2822  TIP3    H2 24674   0.417000   1.008000
24675         OT  2823  TIP3   OH2 24675  -0.834000  15.999400
24676         HT  2823  TIP3    H1 24676   0.417000   1.008000
24677         HT  2823  TIP3    H2 24677   0.417000   1.008000
24678         OT  2824  TIP3   OH2 24678  -0.834000  15.999400
24679         HT  2824  TIP3    H1 24679   0.417000   1.008000
24680         HT  2824  TIP3    H2 24680   0.417000   1.008000
24681         OT  2825  TIP3   OH2 24681  -0.834000  15.999400
24682         HT  2825  TIP3    H1 24682   0.417000   1.008000
24683         HT  2825  TIP3    H2 24683   0.417000   1.008000
24684         OT  2826  TIP3   OH2 24684  -0.834000  15.999400
24685         HT  2826  TIP3    H1 24685   0.417000   1.008000
24686         HT  2826  TIP3    H2 24686   0.417000   1.008000
24687         OT  2827  TIP3   OH2 24687  -0.834000  15.999400
24688         HT  2827  TIP3    H1 24688   0.417000   1.008000
24689         HT  2827  TIP3    H2 24689   0.417000   1.008000
24690         OT  2828  TIP3   OH2 24690  -0.834000  15.999400
24691         HT  2828  TIP3    H1 24691   0.417000   1.008000
24692         HT  2828  TIP3    H2 24692   0.417000   1.008000
24693         OT  2829  TIP3   OH2 24693  -0.834000  15.999400
24694         HT  2829  TIP3    H1 24694   0.417000   1.008000
24695         HT  2829  TIP3    H2 24695   0.417000   1.008000
24696         OT  2830  TIP3   OH2 24696  -0.834000  15.999400
24697         HT  2830  TIP3    H1 24697   0.417000   1.008000
24698         HT  2830  TIP3    H2 24698   0.417000   1.008000
24699         OT  2831  TIP3   OH2 24699  -0.834000  15.999400
24700         HT  2831  TIP3    H1 24700   0.417000   1.008000
24701         HT  2831  TIP3    H2 24701   0.417000   1.008000
24702         OT  2832  TIP3   OH2 24702  -0.834000  15.999400
24703         HT  2832  TIP3    H1 24703   0.417000   1.008000
24704         HT  2832  TIP3    H2 24704   0.417000   1.008000
24705         OT  2833  TIP3   OH2 24705  -0.834000  15.999400
24706         HT  2833  TIP3    H1 24706   0.417000   1.008000
24707         HT  2833  TIP3    H2 24707   0.417000   1.008000
24708         OT  2834  TIP3   OH2 24708  -0.834000  15.999400
24709         HT  2834  TIP3    H1 24709   0.417000   1.008000
24710         HT  2834  TIP3    H2 24710   0.417000   1.008000
24711         OT  2835  TIP3   OH2 24711  -0.834000  15.999400
24712         HT  2835  TIP3    H1 24712   0.417000   1.008000
24713         HT  2835  TIP3    H2 24713   0.417000   1.008000
24714         OT  2836  TIP3   OH2 24714  -0.834000  15.999400
24715         HT  2836  TIP3    H1 24715   0.417000   1.008000
24716         HT  2836  TIP3    H2 24716   0.417000   1.008000
24717         OT  2837  TIP3   OH2 24717  -0.834000  15.999400
24718         HT  2837  TIP3    H1 24718   0.417000   1.008000
24719         HT  2837  TIP3    H2 24719   0.417000   1.008000
24720         OT  2838  TIP3   OH2 24720  -0.834000  15.999400
24721         HT  2838  TIP3    H1 24721   0.417000   1.008000
24722         HT  2838  TIP3    H2 24722   0.417000   1.008000
24723         OT  2839  TIP3   OH2 24723  -0.834000  15.999400
24724         HT  2839  TIP3    H1 24724   0.417000   1.008000
24725         HT  2839  TIP3    H2 24725   0.417000   1.008000
24726         OT  2840  TIP3   OH2 24726  -0.834000  15.999400
24727         HT  2840  TIP3    H1 24727   0.417000   1.008000
24728         HT  2840  TIP3    H2 24728   0.417000   1.008000
24729         OT  2841  TIP3   OH2 24729  -0.834000  15.999400
24730         HT  2841  TIP3    H1 24730   0.417000   1.008000
24731         HT  2841  TIP3    H2 24731   0.417000   1.008000
24732         OT  2842  TIP3   OH2 24732  -0.834000  15.999400
24733         HT  2842  TIP3    H1 24733   0.417000   1.008000
24734         HT  2842  TIP3    H2 24734   0.417000   1.008000
24735         OT  2843  TIP3   OH2 24735  -0.834000  15.999400
24736         HT  2843  TIP3    H1 24736   0.417000   1.008000
24737         HT  2843  TIP3    H2 24737   0.417000   1.008000
24738         OT  2844  TIP3   OH2 24738  -0.834000  15.999400
24739         HT  2844  TIP3    H1 24739   0.417000   1.008000
24740         HT  2844  TIP3    H2 24740   0.417000   1.008000
24741         OT  2845  TIP3   OH2 24741  -0.834000  15.999400
24742         HT  2845  TIP3    H1 24742   0.417000   1.008000
24743         HT  2845  TIP3    H2 24743   0.417000   1.008000
24744         OT  2846  TIP3   OH2 24744  -0.834000  15.999400
24745         HT  2846  TIP3    H1 24745   0.417000   1.008000
24746         HT  2846  TIP3    H2 24746   0.417000   1.008000
24747         OT  2847  TIP3   OH2 24747  -0.834000  15.999400
24748         HT  2847  TIP3    H1 24748   0.417000   1.008000
24749         HT  2847  TIP3    H2 24749   0.417000   1.008000
24750         OT  2848  TIP3   OH2 24750  -0.834000  15.999400
24751         HT  2848  TIP3    H1 24751   0.417000   1.008000
24752         HT  2848  TIP3    H2 24752   0.417000   1.008000
24753         OT  2849  TIP3   OH2 24753  -0.834000  15.999400
24754         HT  2849  TIP3    H1 24754   0.417000   1.008000
24755         HT  2849  TIP3    H2 24755   0.417000   1.008000
24756         OT  2850  TIP3   OH2 24756  -0.834000  15.999400
24757         HT  2850  TIP3    H1 24757   0.417000   1.008000
24758         HT  2850  TIP3    H2 24758   0.417000   1.008000
24759         OT  2851  TIP3   OH2 24759  -0.834000  15.999400
24760         HT  2851  TIP3    H1 24760   0.417000   1.008000
24761         HT  2851  TIP3    H2 24761   0.417000   1.008000
24762         OT  2852  TIP3   OH2 24762  -0.834000  15.999400
24763         HT  2852  TIP3    H1 24763   0.417000   1.008000
24764         HT  2852  TIP3    H2 24764   0.417000   1.008000
24765         OT  2853  TIP3   OH2 24765  -0.834000  15.999400
24766         HT  2853  TIP3    H1 24766   0.417000   1.008000
24767         HT  2853  TIP3    H2 24767   0.417000   1.008000
24768         OT  2854  TIP3   OH2 24768  -0.834000  15.999400
24769         HT  2854  TIP3    H1 24769   0.417000   1.008000
24770         HT  2854  TIP3    H2 24770   0.417000   1.008000
24771         OT  2855  TIP3   OH2 24771  -0.834000  15.999400
24772         HT  2855  TIP3    H1 24772   0.417000   1.008000
24773         HT  2855  TIP3    H2 24773   0.417000   1.008000
24774         OT  2856  TIP3   OH2 24774  -0.834000  15.999400
24775         HT  2856  TIP3    H1 24775   0.417000   1.008000
24776         HT  2856  TIP3    H2 24776   0.417000   1.008000
24777         OT  2857  TIP3   OH2 24777  -0.834000  15.999400
24778         HT  2857  TIP3    H1 24778   0.417000   1.008000
24779         HT  2857  TIP3    H2 24779   0.417000   1.008000
24780         OT  2858  TIP3   OH2 24780  -0.834000  15.999400
24781         HT  2858  TIP3    H1 24781   0.417000   1.008000
24782         HT  2858  TIP3    H2 24782   0.417000   1.008000
24783         OT  2859  TIP3   OH2 24783  -0.834000  15.999400
24784         HT  2859  TIP3    H1 24784   0.417000   1.008000
24785         HT  2859  TIP3    H2 24785   0.417000   1.008000
24786         OT  2860  TIP3   OH2 24786  -0.834000  15.999400
24787         HT  2860  TIP3    H1 24787   0.417000   1.008000
24788         HT  2860  TIP3    H2 24788   0.417000   1.008000
24789         OT  2861  TIP3   OH2 24789  -0.834000  15.999400
24790         HT  2861  TIP3    H1 24790   0.417000   1.008000
24791         HT  2861  TIP3    H2 24791   0.417000   1.008000
24792         OT  2862  TIP3   OH2 24792  -0.834000  15.999400
24793         HT  2862  TIP3    H1 24793   0.417000   1.008000
24794         HT  2862  TIP3    H2 24794   0.417000   1.008000
24795         OT  2863  TIP3   OH2 24795  -0.834000  15.999400
24796         HT  2863  TIP3    H1 24796   0.417000   1.008000
24797         HT  2863  TIP3    H2 24797   0.417000   1.008000
24798         OT  2864  TIP3   OH2 24798  -0.834000  15.999400
24799         HT  2864  TIP3    H1 24799   0.417000   1.008000
24800         HT  2864  TIP3    H2 24800   0.417000   1.008000
24801         OT  2865  TIP3   OH2 24801  -0.834000  15.999400
24802         HT  2865  TIP3    H1 24802   0.417000   1.008000
24803         HT  2865  TIP3    H2 24803   0.417000   1.008000
24804         OT  2866  TIP3   OH2 24804  -0.834000  15.999400
24805         HT  2866  TIP3    H1 24805   0.417000   1.008000
24806         HT  2866  TIP3    H2 24806   0.417000   1.008000
24807         OT  2867  TIP3   OH2 24807  -0.834000  15.999400
24808         HT  2867  TIP3    H1 24808   0.417000   1.008000
24809         HT  2867  TIP3    H2 24809   0.417000   1.008000
24810         OT  2868  TIP3   OH2 24810  -0.834000  15.999400
24811         HT  2868  TIP3    H1 24811   0.417000   1.008000
24812         HT  2868  TIP3    H2 24812   0.417000   1.008000
24813         OT  2869  TIP3   OH2 24813  -0.834000  15.999400
24814         HT  2869  TIP3    H1 24814   0.417000   1.008000
24815         HT  2869  TIP3    H2 24815   0.417000   1.008000
24816         OT  2870  TIP3   OH2 24816  -0.834000  15.999400
24817         HT  2870  TIP3    H1 24817   0.417000   1.008000
24818         HT  2870  TIP3    H2 24818   0.417000   1.008000
24819         OT  2871  TIP3   OH2 24819  -0.834000  15.999400
24820         HT  2871  TIP3    H1 24820   0.417000   1.008000
24821         HT  2871  TIP3    H2 24821   0.417000   1.008000
24822         OT  2872  TIP3   OH2 24822  -0.834000  15.999400
24823         HT  2872  TIP3    H1 24823   0.417000   1.008000
24824         HT  2872  TIP3    H2 24824   0.417000   1.008000
24825         OT  2873  TIP3   OH2 24825  -0.834000  15.999400
24826         HT  2873  TIP3    H1 24826   0.417000   1.008000
24827         HT  2873  TIP3    H2 24827   0.417000   1.008000
24828         OT  2874  TIP3   OH2 24828  -0.834000  15.999400
24829         HT  2874  TIP3    H1 24829   0.417000   1.008000
24830         HT  2874  TIP3    H2 24830   0.417000   1.008000
24831         OT  2875  TIP3   OH2 24831  -0.834000  15.999400
24832         HT  2875  TIP3    H1 24832   0.417000   1.008000
24833         HT  2875  TIP3    H2 24833   0.417000   1.008000
24834         OT  2876  TIP3   OH2 24834  -0.834000  15.999400
24835         HT  2876  TIP3    H1 24835   0.417000   1.008000
24836         HT  2876  TIP3    H2 24836   0.417000   1.008000
24837         OT  2877  TIP3   OH2 24837  -0.834000  15.999400
24838         HT  2877  TIP3    H1 24838   0.417000   1.008000
24839         HT  2877  TIP3    H2 24839   0.417000   1.008000
24840         OT  2878  TIP3   OH2 24840  -0.834000  15.999400
24841         HT  2878  TIP3    H1 24841   0.417000   1.008000
24842         HT  2878  TIP3    H2 24842   0.417000   1.008000
24843         OT  2879  TIP3   OH2 24843  -0.834000  15.999400
24844         HT  2879  TIP3    H1 24844   0.417000   1.008000
24845         HT  2879  TIP3    H2 24845   0.417000   1.008000
24846         OT  2880  TIP3   OH2 24846  -0.834000  15.999400
24847         HT  2880  TIP3    H1 24847   0.417000   1.008000
24848         HT  2880  TIP3    H2 24848   0.417000   1.008000
24849         OT  2881  TIP3   OH2 24849  -0.834000  15.999400
24850         HT  2881  TIP3    H1 24850   0.417000   1.008000
24851         HT  2881  TIP3    H2 24851   0.417000   1.008000
24852         OT  2882  TIP3   OH2 24852  -0.834000  15.999400
24853         HT  2882  TIP3    H1 24853   0.417000   1.008000
24854         HT  2882  TIP3    H2 24854   0.417000   1.008000
24855         OT  2883  TIP3   OH2 24855  -0.834000  15.999400
24856         HT  2883  TIP3    H1 24856   0.417000   1.008000
24857         HT  2883  TIP3    H2 24857   0.417000   1.008000
24858         OT  2884  TIP3   OH2 24858  -0.834000  15.999400
24859         HT  2884  TIP3    H1 24859   0.417000   1.008000
24860         HT  2884  TIP3    H2 24860   0.417000   1.008000
24861         OT  2885  TIP3   OH2 24861  -0.834000  15.999400
24862         HT  2885  TIP3    H1 24862   0.417000   1.008000
24863         HT  2885  TIP3    H2 24863   0.417000   1.008000
24864         OT  2886  TIP3   OH2 24864  -0.834000  15.999400
24865         HT  2886  TIP3    H1 24865   0.417000   1.008000
24866         HT  2886  TIP3    H2 24866   0.417000   1.008000
24867         OT  2887  TIP3   OH2 24867  -0.834000  15.999400
24868         HT  2887  TIP3    H1 24868   0.417000   1.008000
24869         HT  2887  TIP3    H2 24869   0.417000   1.008000
24870         OT  2888  TIP3   OH2 24870  -0.834000  15.999400
24871         HT  2888  TIP3    H1 24871   0.417000   1.008000
24872         HT  2888  TIP3    H2 24872   0.417000   1.008000
24873         OT  2889  TIP3   OH2 24873  -0.834000  15.999400
24874         HT  2889  TIP3    H1 24874   0.417000   1.008000
24875         HT  2889  TIP3    H2 24875   0.417000   1.008000
24876         OT  2890  TIP3   OH2 24876  -0.834000  15.999400
24877         HT  2890  TIP3    H1 24877   0.417000   1.008000
24878         HT  2890  TIP3    H2 24878   0.417000   1.008000
24879         OT  2891  TIP3   OH2 24879  -0.834000  15.999400
24880         HT  2891  TIP3    H1 24880   0.417000   1.008000
24881         HT  2891  TIP3    H2 24881   0.417000   1.008000
24882         OT  2892  TIP3   OH2 24882  -0.834000  15.999400
24883         HT  2892  TIP3    H1 24883   0.417000   1.008000
24884         HT  2892  TIP3    H2 24884   0.417000   1.008000
24885         OT  2893  TIP3   OH2 24885  -0.834000  15.999400
24886         HT  2893  TIP3    H1 24886   0.417000   1.008000
24887         HT  2893  TIP3    H2 24887   0.417000   1.008000
24888         OT  2894  TIP3   OH2 24888  -0.834000  15.999400
24889         HT  2894  TIP3    H1 24889   0.417000   1.008000
24890         HT  2894  TIP3    H2 24890   0.417000   1.008000
24891         OT  2895  TIP3   OH2 24891  -0.834000  15.999400
24892         HT  2895  TIP3    H1 24892   0.417000   1.008000
24893         HT  2895  TIP3    H2 24893   0.417000   1.008000
24894         OT  2896  TIP3   OH2 24894  -0.834000  15.999400
24895         HT  2896  TIP3    H1 24895   0.417000   1.008000
24896         HT  2896  TIP3    H2 24896   0.417000   1.008000
24897         OT  2897  TIP3   OH2 24897  -0.834000  15.999400
24898         HT  2897  TIP3    H1 24898   0.417000   1.008000
24899         HT  2897  TIP3    H2 24899   0.417000   1.008000
24900         OT  2898  TIP3   OH2 24900  -0.834000  15.999400
24901         HT  2898  TIP3    H1 24901   0.417000   1.008000
24902         HT  2898  TIP3    H2 24902   0.417000   1.008000
24903         OT  2899  TIP3   OH2 24903  -0.834000  15.999400
24904         HT  2899  TIP3    H1 24904   0.417000   1.008000
24905         HT  2899  TIP3    H2 24905   0.417000   1.008000
24906         OT  2900  TIP3   OH2 24906  -0.834000  15.999400
24907         HT  2900  TIP3    H1 24907   0.417000   1.008000
24908         HT  2900  TIP3    H2 24908   0.417000   1.008000
24909         OT  2901  TIP3   OH2 24909  -0.834000  15.999400
24910         HT  2901  TIP3    H1 24910   0.417000   1.008000
24911         HT  2901  TIP3    H2 24911   0.417000   1.008000
24912         OT  2902  TIP3   OH2 24912  -0.834000  15.999400
24913         HT  2902  TIP3    H1 24913   0.417000   1.008000
24914         HT  2902  TIP3    H2 24914   0.417000   1.008000
24915         OT  2903  TIP3   OH2 24915  -0.834000  15.999400
24916         HT  2903  TIP3    H1 24916   0.417000   1.008000
24917         HT  2903  TIP3    H2 24917   0.417000   1.008000
24918         OT  2904  TIP3   OH2 24918  -0.834000  15.999400
24919         HT  2904  TIP3    H1 24919   0.417000   1.008000
24920         HT  2904  TIP3    H2 24920   0.417000   1.008000
24921         OT  2905  TIP3   OH2 24921  -0.834000  15.999400
24922         HT  2905  TIP3    H1 24922   0.417000   1.008000
24923         HT  2905  TIP3    H2 24923   0.417000   1.008000
24924         OT  2906  TIP3   OH2 24924  -0.834000  15.999400
24925         HT  2906  TIP3    H1 24925   0.417000   1.008000
24926         HT  2906  TIP3    H2 24926   0.417000   1.008000
24927         OT  2907  TIP3   OH2 24927  -0.834000  15.999400
24928         HT  2907  TIP3    H1 24928   0.417000   1.008000
24929         HT  2907  TIP3    H2 24929   0.417000   1.008000
24930         OT  2908  TIP3   OH2 24930  -0.834000  15.999400
24931         HT  2908  TIP3    H1 24931   0.417000   1.008000
24932         HT  2908  TIP3    H2 24932   0.417000   1.008000
24933         OT  2909  TIP3   OH2 24933  -0.834000  15.999400
24934         HT  2909  TIP3    H1 24934   0.417000   1.008000
24935         HT  2909  TIP3    H2 24935   0.417000   1.008000
24936         OT  2910  TIP3   OH2 24936  -0.834000  15.999400
24937         HT  2910  TIP3    H1 24937   0.417000   1.008000
24938         HT  2910  TIP3    H2 24938   0.417000   1.008000
24939         OT  2911  TIP3   OH2 24939  -0.834000  15.999400
24940         HT  2911  TIP3    H1 24940   0.417000   1.008000
24941         HT  2911  TIP3    H2 24941   0.417000   1.008000
24942         OT  2912  TIP3   OH2 24942  -0.834000  15.999400
24943         HT  2912  TIP3    H1 24943   0.417000   1.008000
24944         HT  2912  TIP3    H2 24944   0.417000   1.008000
24945         OT  2913  TIP3   OH2 24945  -0.834000  15.999400
24946         HT  2913  TIP3    H1 24946   0.417000   1.008000
24947         HT  2913  TIP3    H2 24947   0.417000   1.008000
24948         OT  2914  TIP3   OH2 24948  -0.834000  15.999400
24949         HT  2914  TIP3    H1 24949   0.417000   1.008000
24950         HT  2914  TIP3    H2 24950   0.417000   1.008000
24951         OT  2915  TIP3   OH2 24951  -0.834000  15.999400
24952         HT  2915  TIP3    H1 24952   0.417000   1.008000
24953         HT  2915  TIP3    H2 24953   0.417000   1.008000
24954         OT  2916  TIP3   OH2 24954  -0.834000  15.999400
24955         HT  2916  TIP3    H1 24955   0.417000   1.008000
24956         HT  2916  TIP3    H2 24956   0.417000   1.008000
24957         OT  2917  TIP3   OH2 24957  -0.834000  15.999400
24958         HT  2917  TIP3    H1 24958   0.417000   1.008000
24959         HT  2917  TIP3    H2 24959   0.417000   1.008000
24960         OT  2918  TIP3   OH2 24960  -0.834000  15.999400
24961         HT  2918  TIP3    H1 24961   0.417000   1.008000
24962         HT  2918  TIP3    H2 24962   0.417000   1.008000
24963         OT  2919  TIP3   OH2 24963  -0.834000  15.999400
24964         HT  2919  TIP3    H1 24964   0.417000   1.008000
24965         HT  2919  TIP3    H2 24965   0.417000   1.008000
24966         OT  2920  TIP3   OH2 24966  -0.834000  15.999400
24967         HT  2920  TIP3    H1 24967   0.417000   1.008000
24968         HT  2920  TIP3    H2 24968   0.417000   1.008000
24969         OT  2921  TIP3   OH2 24969  -0.834000  15.999400
24970         HT  2921  TIP3    H1 24970   0.417000   1.008000
24971         HT  2921  TIP3    H2 24971   0.417000   1.008000
24972         OT  2922  TIP3   OH2 24972  -0.834000  15.999400
24973         HT  2922  TIP3    H1 24973   0.417000   1.008000
24974         HT  2922  TIP3    H2 24974   0.417000   1.008000
24975         OT  2923  TIP3   OH2 24975  -0.834000  15.999400
24976         HT  2923  TIP3    H1 24976   0.417000   1.008000
24977         HT  2923  TIP3    H2 24977   0.417000   1.008000
24978         OT  2924  TIP3   OH2 24978  -0.834000  15.999400
24979         HT  2924  TIP3    H1 24979   0.417000   1.008000
24980         HT  2924  TIP3    H2 24980   0.417000   1.008000
24981         OT  2925  TIP3   OH2 24981  -0.834000  15.999400
24982         HT  2925  TIP3    H1 24982   0.417000   1.008000
24983         HT  2925  TIP3    H2 24983   0.417000   1.008000
24984         OT  2926  TIP3   OH2 24984  -0.834000  15.999400
24985         HT  2926  TIP3    H1 24985   0.417000   1.008000
24986         HT  2926  TIP3    H2 24986   0.417000   1.008000
24987         OT  2927  TIP3   OH2 24987  -0.834000  15.999400
24988         HT  2927  TIP3    H1 24988   0.417000   1.008000
24989         HT  2927  TIP3    H2 24989   0.417000   1.008000
24990         OT  2928  TIP3   OH2 24990  -0.834000  15.999400
24991         HT  2928  TIP3    H1 24991   0.417000   1.008000
24992         HT  2928  TIP3    H2 24992   0.417000   1.008000
24993         OT  2929  TIP3   OH2 24993  -0.834000  15.999400
24994         HT  2929  TIP3    H1 24994   0.417000   1.008000
24995         HT  2929  TIP3    H2 24995   0.417000   1.008000
24996         OT  2930  TIP3   OH2 24996  -0.834000  15.999400
24997         HT  2930  TIP3    H1 24997   0.417000   1.008000
24998         HT  2930  TIP3    H2 24998   0.417000   1.008000
24999         OT  2931  TIP3   OH2 24999  -0.834000  15.999400
25000         HT  2931  TIP3    H1 25000   0.417000   1.008000
25001         HT  2931  TIP3    H2 25001   0.417000   1.008000
25002         OT  2932  TIP3   OH2 25002  -0.834000  15.999400
25003         HT  2932  TIP3    H1 25003   0.417000   1.008000
25004         HT  2932  TIP3    H2 25004   0.417000   1.008000
25005         OT  2933  TIP3   OH2 25005  -0.834000  15.999400
25006         HT  2933  TIP3    H1 25006   0.417000   1.008000
25007         HT  2933  TIP3    H2 25007   0.417000   1.008000
25008         OT  2934  TIP3   OH2 25008  -0.834000  15.999400
25009         HT  2934  TIP3    H1 25009   0.417000   1.008000
25010         HT  2934  TIP3    H2 25010   0.417000   1.008000
25011         OT  2935  TIP3   OH2 25011  -0.834000  15.999400
25012         HT  2935  TIP3    H1 25012   0.417000   1.008000
25013         HT  2935  TIP3    H2 25013   0.417000   1.008000
25014         OT  2936  TIP3   OH2 25014  -0.834000  15.999400
25015         HT  2936  TIP3    H1 25015   0.417000   1.008000
25016         HT  2936  TIP3    H2 25016   0.417000   1.008000
25017         OT  2937  TIP3   OH2 25017  -0.834000  15.999400
25018         HT  2937  TIP3    H1 25018   0.417000   1.008000
25019         HT  2937  TIP3    H2 25019   0.417000   1.008000
25020         OT  2938  TIP3   OH2 25020  -0.834000  15.999400
25021         HT  2938  TIP3    H1 25021   0.417000   1.008000
25022         HT  2938  TIP3    H2 25022   0.417000   1.008000
25023         OT  2939  TIP3   OH2 25023  -0.834000  15.999400
25024         HT  2939  TIP3    H1 25024   0.417000   1.008000
25025         HT  2939  TIP3    H2 25025   0.417000   1.008000
25026         OT  2940  TIP3   OH2 25026  -0.834000  15.999400
25027         HT  2940  TIP3    H1 25027   0.417000   1.008000
25028         HT  2940  TIP3    H2 25028   0.417000   1.008000
25029         OT  2941  TIP3   OH2 25029  -0.834000  15.999400
25030         HT  2941  TIP3    H1 25030   0.417000   1.008000
25031         HT  2941  TIP3    H2 25031   0.417000   1.008000
25032         OT  2942  TIP3   OH2 25032  -0.834000  15.999400
25033         HT  2942  TIP3    H1 25033   0.417000   1.008000
25034         HT  2942  TIP3    H2 25034   0.417000   1.008000
25035         OT  2943  TIP3   OH2 25035  -0.834000  15.999400
25036         HT  2943  TIP3    H1 25036   0.417000   1.008000
25037         HT  2943  TIP3    H2 25037   0.417000   1.008000
25038         OT  2944  TIP3   OH2 25038  -0.834000  15.999400
25039         HT  2944  TIP3    H1 25039   0.417000   1.008000
25040         HT  2944  TIP3    H2 25040   0.417000   1.008000
25041         OT  2945  TIP3   OH2 25041  -0.834000  15.999400
25042         HT  2945  TIP3    H1 25042   0.417000   1.008000
25043         HT  2945  TIP3    H2 25043   0.417000   1.008000
25044         OT  2946  TIP3   OH2 25044  -0.834000  15.999400
25045         HT  2946  TIP3    H1 25045   0.417000   1.008000
25046         HT  2946  TIP3    H2 25046   0.417000   1.008000
25047         OT  2947  TIP3   OH2 25047  -0.834000  15.999400
25048         HT  2947  TIP3    H1 25048   0.417000   1.008000
25049         HT  2947  TIP3    H2 25049   0.417000   1.008000
25050         OT  2948  TIP3   OH2 25050  -0.834000  15.999400
25051         HT  2948  TIP3    H1 25051   0.417000   1.008000
25052         HT  2948  TIP3    H2 25052   0.417000   1.008000
25053         OT  2949  TIP3   OH2 25053  -0.834000  15.999400
25054         HT  2949  TIP3    H1 25054   0.417000   1.008000
25055         HT  2949  TIP3    H2 25055   0.417000   1.008000
25056         OT  2950  TIP3   OH2 25056  -0.834000  15.999400
25057         HT  2950  TIP3    H1 25057   0.417000   1.008000
25058         HT  2950  TIP3    H2 25058   0.417000   1.008000
25059         OT  2951  TIP3   OH2 25059  -0.834000  15.999400
25060         HT  2951  TIP3    H1 25060   0.417000   1.008000
25061         HT  2951  TIP3    H2 25061   0.417000   1.008000
25062         OT  2952  TIP3   OH2 25062  -0.834000  15.999400
25063         HT  2952  TIP3    H1 25063   0.417000   1.008000
25064         HT  2952  TIP3    H2 25064   0.417000   1.008000
25065         OT  2953  TIP3   OH2 25065  -0.834000  15.999400
25066         HT  2953  TIP3    H1 25066   0.417000   1.008000
25067         HT  2953  TIP3    H2 25067   0.417000   1.008000
25068         OT  2954  TIP3   OH2 25068  -0.834000  15.999400
25069         HT  2954  TIP3    H1 25069   0.417000   1.008000
25070         HT  2954  TIP3    H2 25070   0.417000   1.008000
25071         OT  2955  TIP3   OH2 25071  -0.834000  15.999400
25072         HT  2955  TIP3    H1 25072   0.417000   1.008000
25073         HT  2955  TIP3    H2 25073   0.417000   1.008000
25074         OT  2956  TIP3   OH2 25074  -0.834000  15.999400
25075         HT  2956  TIP3    H1 25075   0.417000   1.008000
25076         HT  2956  TIP3    H2 25076   0.417000   1.008000
25077         OT  2957  TIP3   OH2 25077  -0.834000  15.999400
25078         HT  2957  TIP3    H1 25078   0.417000   1.008000
25079         HT  2957  TIP3    H2 25079   0.417000   1.008000
25080         OT  2958  TIP3   OH2 25080  -0.834000  15.999400
25081         HT  2958  TIP3    H1 25081   0.417000   1.008000
25082         HT  2958  TIP3    H2 25082   0.417000   1.008000
25083         OT  2959  TIP3   OH2 25083  -0.834000  15.999400
25084         HT  2959  TIP3    H1 25084   0.417000   1.008000
25085         HT  2959  TIP3    H2 25085   0.417000   1.008000
25086         OT  2960  TIP3   OH2 25086  -0.834000  15.999400
25087         HT  2960  TIP3    H1 25087   0.417000   1.008000
25088         HT  2960  TIP3    H2 25088   0.417000   1.008000
25089         OT  2961  TIP3   OH2 25089  -0.834000  15.999400
25090         HT  2961  TIP3    H1 25090   0.417000   1.008000
25091         HT  2961  TIP3    H2 25091   0.417000   1.008000
25092         OT  2962  TIP3   OH2 25092  -0.834000  15.999400
25093         HT  2962  TIP3    H1 25093   0.417000   1.008000
25094         HT  2962  TIP3    H2 25094   0.417000   1.008000
25095         OT  2963  TIP3   OH2 25095  -0.834000  15.999400
25096         HT  2963  TIP3    H1 25096   0.417000   1.008000
25097         HT  2963  TIP3    H2 25097   0.417000   1.008000
25098         OT  2964  TIP3   OH2 25098  -0.834000  15.999400
25099         HT  2964  TIP3    H1 25099   0.417000   1.008000
25100         HT  2964  TIP3    H2 25100   0.417000   1.008000
25101         OT  2965  TIP3   OH2 25101  -0.834000  15.999400
25102         HT  2965  TIP3    H1 25102   0.417000   1.008000
25103         HT  2965  TIP3    H2 25103   0.417000   1.008000
25104         OT  2966  TIP3   OH2 25104  -0.834000  15.999400
25105         HT  2966  TIP3    H1 25105   0.417000   1.008000
25106         HT  2966  TIP3    H2 25106   0.417000   1.008000
25107         OT  2967  TIP3   OH2 25107  -0.834000  15.999400
25108         HT  2967  TIP3    H1 25108   0.417000   1.008000
25109         HT  2967  TIP3    H2 25109   0.417000   1.008000
25110         OT  2968  TIP3   OH2 25110  -0.834000  15.999400
25111         HT  2968  TIP3    H1 25111   0.417000   1.008000
25112         HT  2968  TIP3    H2 25112   0.417000   1.008000
25113         OT  2969  TIP3   OH2 25113  -0.834000  15.999400
25114         HT  2969  TIP3    H1 25114   0.417000   1.008000
25115         HT  2969  TIP3    H2 25115   0.417000   1.008000
25116         OT  2970  TIP3   OH2 25116  -0.834000  15.999400
25117         HT  2970  TIP3    H1 25117   0.417000   1.008000
25118         HT  2970  TIP3    H2 25118   0.417000   1.008000
25119         OT  2971  TIP3   OH2 25119  -0.834000  15.999400
25120         HT  2971  TIP3    H1 25120   0.417000   1.008000
25121         HT  2971  TIP3    H2 25121   0.417000   1.008000
25122         OT  2972  TIP3   OH2 25122  -0.834000  15.999400
25123         HT  2972  TIP3    H1 25123   0.417000   1.008000
25124         HT  2972  TIP3    H2 25124   0.417000   1.008000
25125         OT  2973  TIP3   OH2 25125  -0.834000  15.999400
25126         HT  2973  TIP3    H1 25126   0.417000   1.008000
25127         HT  2973  TIP3    H2 25127   0.417000   1.008000
25128         OT  2974  TIP3   OH2 25128  -0.834000  15.999400
25129         HT  2974  TIP3    H1 25129   0.417000   1.008000
25130         HT  2974  TIP3    H2 25130   0.417000   1.008000
25131         OT  2975  TIP3   OH2 25131  -0.834000  15.999400
25132         HT  2975  TIP3    H1 25132   0.417000   1.008000
25133         HT  2975  TIP3    H2 25133   0.417000   1.008000
25134         OT  2976  TIP3   OH2 25134  -0.834000  15.999400
25135         HT  2976  TIP3    H1 25135   0.417000   1.008000
25136         HT  2976  TIP3    H2 25136   0.417000   1.008000
25137         OT  2977  TIP3   OH2 25137  -0.834000  15.999400
25138         HT  2977  TIP3    H1 25138   0.417000   1.008000
25139         HT  2977  TIP3    H2 25139   0.417000   1.008000
25140         OT  2978  TIP3   OH2 25140  -0.834000  15.999400
25141         HT  2978  TIP3    H1 25141   0.417000   1.008000
25142         HT  2978  TIP3    H2 25142   0.417000   1.008000
25143         OT  2979  TIP3   OH2 25143  -0.834000  15.999400
25144         HT  2979  TIP3    H1 25144   0.417000   1.008000
25145         HT  2979  TIP3    H2 25145   0.417000   1.008000
25146         OT  2980  TIP3   OH2 25146  -0.834000  15.999400
25147         HT  2980  TIP3    H1 25147   0.417000   1.008000
25148         HT  2980  TIP3    H2 25148   0.417000   1.008000
25149         OT  2981  TIP3   OH2 25149  -0.834000  15.999400
25150         HT  2981  TIP3    H1 25150   0.417000   1.008000
25151         HT  2981  TIP3    H2 25151   0.417000   1.008000
25152         OT  2982  TIP3   OH2 25152  -0.834000  15.999400
25153         HT  2982  TIP3    H1 25153   0.417000   1.008000
25154         HT  2982  TIP3    H2 25154   0.417000   1.008000
25155         OT  2983  TIP3   OH2 25155  -0.834000  15.999400
25156         HT  2983  TIP3    H1 25156   0.417000   1.008000
25157         HT  2983  TIP3    H2 25157   0.417000   1.008000
25158         OT  2984  TIP3   OH2 25158  -0.834000  15.999400
25159         HT  2984  TIP3    H1 25159   0.417000   1.008000
25160         HT  2984  TIP3    H2 25160   0.417000   1.008000
25161         OT  2985  TIP3   OH2 25161  -0.834000  15.999400
25162         HT  2985  TIP3    H1 25162   0.417000   1.008000
25163         HT  2985  TIP3    H2 25163   0.417000   1.008000
25164         OT  2986  TIP3   OH2 25164  -0.834000  15.999400
25165         HT  2986  TIP3    H1 25165   0.417000   1.008000
25166         HT  2986  TIP3    H2 25166   0.417000   1.008000
25167         OT  2987  TIP3   OH2 25167  -0.834000  15.999400
25168         HT  2987  TIP3    H1 25168   0.417000   1.008000
25169         HT  2987  TIP3    H2 25169   0.417000   1.008000
25170         OT  2988  TIP3   OH2 25170  -0.834000  15.999400
25171         HT  2988  TIP3    H1 25171   0.417000   1.008000
25172         HT  2988  TIP3    H2 25172   0.417000   1.008000
25173         OT  2989  TIP3   OH2 25173  -0.834000  15.999400
25174         HT  2989  TIP3    H1 25174   0.417000   1.008000
25175         HT  2989  TIP3    H2 25175   0.417000   1.008000
25176         OT  2990  TIP3   OH2 25176  -0.834000  15.999400
25177         HT  2990  TIP3    H1 25177   0.417000   1.008000
25178         HT  2990  TIP3    H2 25178   0.417000   1.008000
25179         OT  2991  TIP3   OH2 25179  -0.834000  15.999400
25180         HT  2991  TIP3    H1 25180   0.417000   1.008000
25181         HT  2991  TIP3    H2 25181   0.417000   1.008000
25182         OT  2992  TIP3   OH2 25182  -0.834000  15.999400
25183         HT  2992  TIP3    H1 25183   0.417000   1.008000
25184         HT  2992  TIP3    H2 25184   0.417000   1.008000
25185         OT  2993  TIP3   OH2 25185  -0.834000  15.999400
25186         HT  2993  TIP3    H1 25186   0.417000   1.008000
25187         HT  2993  TIP3    H2 25187   0.417000   1.008000
25188         OT  2994  TIP3   OH2 25188  -0.834000  15.999400
25189         HT  2994  TIP3    H1 25189   0.417000   1.008000
25190         HT  2994  TIP3    H2 25190   0.417000   1.008000
25191         OT  2995  TIP3   OH2 25191  -0.834000  15.999400
25192         HT  2995  TIP3    H1 25192   0.417000   1.008000
25193         HT  2995  TIP3    H2 25193   0.417000   1.008000
25194         OT  2996  TIP3   OH2 25194  -0.834000  15.999400
25195         HT  2996  TIP3    H1 25195   0.417000   1.008000
25196         HT  2996  TIP3    H2 25196   0.417000   1.008000
25197         OT  2997  TIP3   OH2 25197  -0.834000  15.999400
25198         HT  2997  TIP3    H1 25198   0.417000   1.008000
25199         HT  2997  TIP3    H2 25199   0.417000   1.008000
25200         OT  2998  TIP3   OH2 25200  -0.834000  15.999400
25201         HT  2998  TIP3    H1 25201   0.417000   1.008000
25202         HT  2998  TIP3    H2 25202   0.417000   1.008000
25203         OT  2999  TIP3   OH2 25203  -0.834000  15.999400
25204         HT  2999  TIP3    H1 25204   0.417000   1.008000
25205         HT  2999  TIP3    H2 25205   0.417000   1.008000
25206         OT  3000  TIP3   OH2 25206  -0.834000  15.999400
25207         HT  3000  TIP3    H1 25207   0.417000   1.008000
25208         HT  3000  TIP3    H2 25208   0.417000   1.008000
25209         OT  3001  TIP3   OH2 25209  -0.834000  15.999400
25210         HT  3001  TIP3    H1 25210   0.417000   1.008000
25211         HT  3001  TIP3    H2 25211   0.417000   1.008000
25212         OT  3002  TIP3   OH2 25212  -0.834000  15.999400
25213         HT  3002  TIP3    H1 25213   0.417000   1.008000
25214         HT  3002  TIP3    H2 25214   0.417000   1.008000
25215         OT  3003  TIP3   OH2 25215  -0.834000  15.999400
25216         HT  3003  TIP3    H1 25216   0.417000   1.008000
25217         HT  3003  TIP3    H2 25217   0.417000   1.008000
25218         OT  3004  TIP3   OH2 25218  -0.834000  15.999400
25219         HT  3004  TIP3    H1 25219   0.417000   1.008000
25220         HT  3004  TIP3    H2 25220   0.417000   1.008000
25221         OT  3005  TIP3   OH2 25221  -0.834000  15.999400
25222         HT  3005  TIP3    H1 25222   0.417000   1.008000
25223         HT  3005  TIP3    H2 25223   0.417000   1.008000
25224         OT  3006  TIP3   OH2 25224  -0.834000  15.999400
25225         HT  3006  TIP3    H1 25225   0.417000   1.008000
25226         HT  3006  TIP3    H2 25226   0.417000   1.008000
25227         OT  3007  TIP3   OH2 25227  -0.834000  15.999400
25228         HT  3007  TIP3    H1 25228   0.417000   1.008000
25229         HT  3007  TIP3    H2 25229   0.417000   1.008000
25230         OT  3008  TIP3   OH2 25230  -0.834000  15.999400
25231         HT  3008  TIP3    H1 25231   0.417000   1.008000
25232         HT  3008  TIP3    H2 25232   0.417000   1.008000
25233         OT  3009  TIP3   OH2 25233  -0.834000  15.999400
25234         HT  3009  TIP3    H1 25234   0.417000   1.008000
25235         HT  3009  TIP3    H2 25235   0.417000   1.008000
25236         OT  3010  TIP3   OH2 25236  -0.834000  15.999400
25237         HT  3010  TIP3    H1 25237   0.417000   1.008000
25238         HT  3010  TIP3    H2 25238   0.417000   1.008000
25239         OT  3011  TIP3   OH2 25239  -0.834000  15.999400
25240         HT  3011  TIP3    H1 25240   0.417000   1.008000
25241         HT  3011  TIP3    H2 25241   0.417000   1.008000
25242         OT  3012  TIP3   OH2 25242  -0.834000  15.999400
25243         HT  3012  TIP3    H1 25243   0.417000   1.008000
25244         HT  3012  TIP3    H2 25244   0.417000   1.008000
25245         OT  3013  TIP3   OH2 25245  -0.834000  15.999400
25246         HT  3013  TIP3    H1 25246   0.417000   1.008000
25247         HT  3013  TIP3    H2 25247   0.417000   1.008000
25248         OT  3014  TIP3   OH2 25248  -0.834000  15.999400
25249         HT  3014  TIP3    H1 25249   0.417000   1.008000
25250         HT  3014  TIP3    H2 25250   0.417000   1.008000
25251         OT  3015  TIP3   OH2 25251  -0.834000  15.999400
25252         HT  3015  TIP3    H1 25252   0.417000   1.008000
25253         HT  3015  TIP3    H2 25253   0.417000   1.008000
25254         OT  3016  TIP3   OH2 25254  -0.834000  15.999400
25255         HT  3016  TIP3    H1 25255   0.417000   1.008000
25256         HT  3016  TIP3    H2 25256   0.417000   1.008000
25257         OT  3017  TIP3   OH2 25257  -0.834000  15.999400
25258         HT  3017  TIP3    H1 25258   0.417000   1.008000
25259         HT  3017  TIP3    H2 25259   0.417000   1.008000
25260         OT  3018  TIP3   OH2 25260  -0.834000  15.999400
25261         HT  3018  TIP3    H1 25261   0.417000   1.008000
25262         HT  3018  TIP3    H2 25262   0.417000   1.008000
25263         OT  3019  TIP3   OH2 25263  -0.834000  15.999400
25264         HT  3019  TIP3    H1 25264   0.417000   1.008000
25265         HT  3019  TIP3    H2 25265   0.417000   1.008000
25266         OT  3020  TIP3   OH2 25266  -0.834000  15.999400
25267         HT  3020  TIP3    H1 25267   0.417000   1.008000
25268         HT  3020  TIP3    H2 25268   0.417000   1.008000
25269         OT  3021  TIP3   OH2 25269  -0.834000  15.999400
25270         HT  3021  TIP3    H1 25270   0.417000   1.008000
25271         HT  3021  TIP3    H2 25271   0.417000   1.008000
25272         OT  3022  TIP3   OH2 25272  -0.834000  15.999400
25273         HT  3022  TIP3    H1 25273   0.417000   1.008000
25274         HT  3022  TIP3    H2 25274   0.417000   1.008000
25275         OT  3023  TIP3   OH2 25275  -0.834000  15.999400
25276         HT  3023  TIP3    H1 25276   0.417000   1.008000
25277         HT  3023  TIP3    H2 25277   0.417000   1.008000
25278         OT  3024  TIP3   OH2 25278  -0.834000  15.999400
25279         HT  3024  TIP3    H1 25279   0.417000   1.008000
25280         HT  3024  TIP3    H2 25280   0.417000   1.008000
25281         OT  3025  TIP3   OH2 25281  -0.834000  15.999400
25282         HT  3025  TIP3    H1 25282   0.417000   1.008000
25283         HT  3025  TIP3    H2 25283   0.417000   1.008000
25284         OT  3026  TIP3   OH2 25284  -0.834000  15.999400
25285         HT  3026  TIP3    H1 25285   0.417000   1.008000
25286         HT  3026  TIP3    H2 25286   0.417000   1.008000
25287         OT  3027  TIP3   OH2 25287  -0.834000  15.999400
25288         HT  3027  TIP3    H1 25288   0.417000   1.008000
25289         HT  3027  TIP3    H2 25289   0.417000   1.008000
25290         OT  3028  TIP3   OH2 25290  -0.834000  15.999400
25291         HT  3028  TIP3    H1 25291   0.417000   1.008000
25292         HT  3028  TIP3    H2 25292   0.417000   1.008000
25293         OT  3029  TIP3   OH2 25293  -0.834000  15.999400
25294         HT  3029  TIP3    H1 25294   0.417000   1.008000
25295         HT  3029  TIP3    H2 25295   0.417000   1.008000
25296         OT  3030  TIP3   OH2 25296  -0.834000  15.999400
25297         HT  3030  TIP3    H1 25297   0.417000   1.008000
25298         HT  3030  TIP3    H2 25298   0.417000   1.008000
25299         OT  3031  TIP3   OH2 25299  -0.834000  15.999400
25300         HT  3031  TIP3    H1 25300   0.417000   1.008000
25301         HT  3031  TIP3    H2 25301   0.417000   1.008000
25302         OT  3032  TIP3   OH2 25302  -0.834000  15.999400
25303         HT  3032  TIP3    H1 25303   0.417000   1.008000
25304         HT  3032  TIP3    H2 25304   0.417000   1.008000
25305         OT  3033  TIP3   OH2 25305  -0.834000  15.999400
25306         HT  3033  TIP3    H1 25306   0.417000   1.008000
25307         HT  3033  TIP3    H2 25307   0.417000   1.008000
25308         OT  3034  TIP3   OH2 25308  -0.834000  15.999400
25309         HT  3034  TIP3    H1 25309   0.417000   1.008000
25310         HT  3034  TIP3    H2 25310   0.417000   1.008000
25311         OT  3035  TIP3   OH2 25311  -0.834000  15.999400
25312         HT  3035  TIP3    H1 25312   0.417000   1.008000
25313         HT  3035  TIP3    H2 25313   0.417000   1.008000
25314         OT  3036  TIP3   OH2 25314  -0.834000  15.999400
25315         HT  3036  TIP3    H1 25315   0.417000   1.008000
25316         HT  3036  TIP3    H2 25316   0.417000   1.008000
25317         OT  3037  TIP3   OH2 25317  -0.834000  15.999400
25318         HT  3037  TIP3    H1 25318   0.417000   1.008000
25319         HT  3037  TIP3    H2 25319   0.417000   1.008000
25320         OT  3038  TIP3   OH2 25320  -0.834000  15.999400
25321         HT  3038  TIP3    H1 25321   0.417000   1.008000
25322         HT  3038  TIP3    H2 25322   0.417000   1.008000
25323         OT  3039  TIP3   OH2 25323  -0.834000  15.999400
25324         HT  3039  TIP3    H1 25324   0.417000   1.008000
25325         HT  3039  TIP3    H2 25325   0.417000   1.008000
25326         OT  3040  TIP3   OH2 25326  -0.834000  15.999400
25327         HT  3040  TIP3    H1 25327   0.417000   1.008000
25328         HT  3040  TIP3    H2 25328   0.417000   1.008000
25329         OT  3041  TIP3   OH2 25329  -0.834000  15.999400
25330         HT  3041  TIP3    H1 25330   0.417000   1.008000
25331         HT  3041  TIP3    H2 25331   0.417000   1.008000
25332         OT  3042  TIP3   OH2 25332  -0.834000  15.999400
25333         HT  3042  TIP3    H1 25333   0.417000   1.008000
25334         HT  3042  TIP3    H2 25334   0.417000   1.008000
25335         OT  3043  TIP3   OH2 25335  -0.834000  15.999400
25336         HT  3043  TIP3    H1 25336   0.417000   1.008000
25337         HT  3043  TIP3    H2 25337   0.417000   1.008000
25338         OT  3044  TIP3   OH2 25338  -0.834000  15.999400
25339         HT  3044  TIP3    H1 25339   0.417000   1.008000
25340         HT  3044  TIP3    H2 25340   0.417000   1.008000
25341         OT  3045  TIP3   OH2 25341  -0.834000  15.999400
25342         HT  3045  TIP3    H1 25342   0.417000   1.008000
25343         HT  3045  TIP3    H2 25343   0.417000   1.008000
25344         OT  3046  TIP3   OH2 25344  -0.834000  15.999400
25345         HT  3046  TIP3    H1 25345   0.417000   1.008000
25346         HT  3046  TIP3    H2 25346   0.417000   1.008000
25347         OT  3047  TIP3   OH2 25347  -0.834000  15.999400
25348         HT  3047  TIP3    H1 25348   0.417000   1.008000
25349         HT  3047  TIP3    H2 25349   0.417000   1.008000
25350         OT  3048  TIP3   OH2 25350  -0.834000  15.999400
25351         HT  3048  TIP3    H1 25351   0.417000   1.008000
25352         HT  3048  TIP3    H2 25352   0.417000   1.008000
25353         OT  3049  TIP3   OH2 25353  -0.834000  15.999400
25354         HT  3049  TIP3    H1 25354   0.417000   1.008000
25355         HT  3049  TIP3    H2 25355   0.417000   1.008000
25356         OT  3050  TIP3   OH2 25356  -0.834000  15.999400
25357         HT  3050  TIP3    H1 25357   0.417000   1.008000
25358         HT  3050  TIP3    H2 25358   0.417000   1.008000
25359         OT  3051  TIP3   OH2 25359  -0.834000  15.999400
25360         HT  3051  TIP3    H1 25360   0.417000   1.008000
25361         HT  3051  TIP3    H2 25361   0.417000   1.008000
25362         OT  3052  TIP3   OH2 25362  -0.834000  15.999400
25363         HT  3052  TIP3    H1 25363   0.417000   1.008000
25364         HT  3052  TIP3    H2 25364   0.417000   1.008000
25365         OT  3053  TIP3   OH2 25365  -0.834000  15.999400
25366         HT  3053  TIP3    H1 25366   0.417000   1.008000
25367         HT  3053  TIP3    H2 25367   0.417000   1.008000
25368         OT  3054  TIP3   OH2 25368  -0.834000  15.999400
25369         HT  3054  TIP3    H1 25369   0.417000   1.008000
25370         HT  3054  TIP3    H2 25370   0.417000   1.008000
25371         OT  3055  TIP3   OH2 25371  -0.834000  15.999400
25372         HT  3055  TIP3    H1 25372   0.417000   1.008000
25373         HT  3055  TIP3    H2 25373   0.417000   1.008000
25374         OT  3056  TIP3   OH2 25374  -0.834000  15.999400
25375         HT  3056  TIP3    H1 25375   0.417000   1.008000
25376         HT  3056  TIP3    H2 25376   0.417000   1.008000
25377         OT  3057  TIP3   OH2 25377  -0.834000  15.999400
25378         HT  3057  TIP3    H1 25378   0.417000   1.008000
25379         HT  3057  TIP3    H2 25379   0.417000   1.008000
25380         OT  3058  TIP3   OH2 25380  -0.834000  15.999400
25381         HT  3058  TIP3    H1 25381   0.417000   1.008000
25382         HT  3058  TIP3    H2 25382   0.417000   1.008000
25383         OT  3059  TIP3   OH2 25383  -0.834000  15.999400
25384         HT  3059  TIP3    H1 25384   0.417000   1.008000
25385         HT  3059  TIP3    H2 25385   0.417000   1.008000
25386         OT  3060  TIP3   OH2 25386  -0.834000  15.999400
25387         HT  3060  TIP3    H1 25387   0.417000   1.008000
25388         HT  3060  TIP3    H2 25388   0.417000   1.008000
25389         OT  3061  TIP3   OH2 25389  -0.834000  15.999400
25390         HT  3061  TIP3    H1 25390   0.417000   1.008000
25391         HT  3061  TIP3    H2 25391   0.417000   1.008000
25392         OT  3062  TIP3   OH2 25392  -0.834000  15.999400
25393         HT  3062  TIP3    H1 25393   0.417000   1.008000
25394         HT  3062  TIP3    H2 25394   0.417000   1.008000
25395         OT  3063  TIP3   OH2 25395  -0.834000  15.999400
25396         HT  3063  TIP3    H1 25396   0.417000   1.008000
25397         HT  3063  TIP3    H2 25397   0.417000   1.008000
25398         OT  3064  TIP3   OH2 25398  -0.834000  15.999400
25399         HT  3064  TIP3    H1 25399   0.417000   1.008000
25400         HT  3064  TIP3    H2 25400   0.417000   1.008000
25401         OT  3065  TIP3   OH2 25401  -0.834000  15.999400
25402         HT  3065  TIP3    H1 25402   0.417000   1.008000
25403         HT  3065  TIP3    H2 25403   0.417000   1.008000
25404         OT  3066  TIP3   OH2 25404  -0.834000  15.999400
25405         HT  3066  TIP3    H1 25405   0.417000   1.008000
25406         HT  3066  TIP3    H2 25406   0.417000   1.008000
25407         OT  3067  TIP3   OH2 25407  -0.834000  15.999400
25408         HT  3067  TIP3    H1 25408   0.417000   1.008000
25409         HT  3067  TIP3    H2 25409   0.417000   1.008000
25410         OT  3068  TIP3   OH2 25410  -0.834000  15.999400
25411         HT  3068  TIP3    H1 25411   0.417000   1.008000
25412         HT  3068  TIP3    H2 25412   0.417000   1.008000
25413         OT  3069  TIP3   OH2 25413  -0.834000  15.999400
25414         HT  3069  TIP3    H1 25414   0.417000   1.008000
25415         HT  3069  TIP3    H2 25415   0.417000   1.008000
25416         OT  3070  TIP3   OH2 25416  -0.834000  15.999400
25417         HT  3070  TIP3    H1 25417   0.417000   1.008000
25418         HT  3070  TIP3    H2 25418   0.417000   1.008000
25419         OT  3071  TIP3   OH2 25419  -0.834000  15.999400
25420         HT  3071  TIP3    H1 25420   0.417000   1.008000
25421         HT  3071  TIP3    H2 25421   0.417000   1.008000
25422         OT  3072  TIP3   OH2 25422  -0.834000  15.999400
25423         HT  3072  TIP3    H1 25423   0.417000   1.008000
25424         HT  3072  TIP3    H2 25424   0.417000   1.008000
25425         OT  3073  TIP3   OH2 25425  -0.834000  15.999400
25426         HT  3073  TIP3    H1 25426   0.417000   1.008000
25427         HT  3073  TIP3    H2 25427   0.417000   1.008000
25428         OT  3074  TIP3   OH2 25428  -0.834000  15.999400
25429         HT  3074  TIP3    H1 25429   0.417000   1.008000
25430         HT  3074  TIP3    H2 25430   0.417000   1.008000
25431         OT  3075  TIP3   OH2 25431  -0.834000  15.999400
25432         HT  3075  TIP3    H1 25432   0.417000   1.008000
25433         HT  3075  TIP3    H2 25433   0.417000   1.008000
25434         OT  3076  TIP3   OH2 25434  -0.834000  15.999400
25435         HT  3076  TIP3    H1 25435   0.417000   1.008000
25436         HT  3076  TIP3    H2 25436   0.417000   1.008000
25437         OT  3077  TIP3   OH2 25437  -0.834000  15.999400
25438         HT  3077  TIP3    H1 25438   0.417000   1.008000
25439         HT  3077  TIP3    H2 25439   0.417000   1.008000
25440         OT  3078  TIP3   OH2 25440  -0.834000  15.999400
25441         HT  3078  TIP3    H1 25441   0.417000   1.008000
25442         HT  3078  TIP3    H2 25442   0.417000   1.008000
25443         OT  3079  TIP3   OH2 25443  -0.834000  15.999400
25444         HT  3079  TIP3    H1 25444   0.417000   1.008000
25445         HT  3079  TIP3    H2 25445   0.417000   1.008000
25446         OT  3080  TIP3   OH2 25446  -0.834000  15.999400
25447         HT  3080  TIP3    H1 25447   0.417000   1.008000
25448         HT  3080  TIP3    H2 25448   0.417000   1.008000
25449         OT  3081  TIP3   OH2 25449  -0.834000  15.999400
25450         HT  3081  TIP3    H1 25450   0.417000   1.008000
25451         HT  3081  TIP3    H2 25451   0.417000   1.008000
25452         OT  3082  TIP3   OH2 25452  -0.834000  15.999400
25453         HT  3082  TIP3    H1 25453   0.417000   1.008000
25454         HT  3082  TIP3    H2 25454   0.417000   1.008000
25455         OT  3083  TIP3   OH2 25455  -0.834000  15.999400
25456         HT  3083  TIP3    H1 25456   0.417000   1.008000
25457         HT  3083  TIP3    H2 25457   0.417000   1.008000
25458         OT  3084  TIP3   OH2 25458  -0.834000  15.999400
25459         HT  3084  TIP3    H1 25459   0.417000   1.008000
25460         HT  3084  TIP3    H2 25460   0.417000   1.008000
25461         OT  3085  TIP3   OH2 25461  -0.834000  15.999400
25462         HT  3085  TIP3    H1 25462   0.417000   1.008000
25463         HT  3085  TIP3    H2 25463   0.417000   1.008000
25464         OT  3086  TIP3   OH2 25464  -0.834000  15.999400
25465         HT  3086  TIP3    H1 25465   0.417000   1.008000
25466         HT  3086  TIP3    H2 25466   0.417000   1.008000
25467         OT  3087  TIP3   OH2 25467  -0.834000  15.999400
25468         HT  3087  TIP3    H1 25468   0.417000   1.008000
25469         HT  3087  TIP3    H2 25469   0.417000   1.008000
25470         OT  3088  TIP3   OH2 25470  -0.834000  15.999400
25471         HT  3088  TIP3    H1 25471   0.417000   1.008000
25472         HT  3088  TIP3    H2 25472   0.417000   1.008000
25473         OT  3089  TIP3   OH2 25473  -0.834000  15.999400
25474         HT  3089  TIP3    H1 25474   0.417000   1.008000
25475         HT  3089  TIP3    H2 25475   0.417000   1.008000
25476         OT  3090  TIP3   OH2 25476  -0.834000  15.999400
25477         HT  3090  TIP3    H1 25477   0.417000   1.008000
25478         HT  3090  TIP3    H2 25478   0.417000   1.008000
25479         OT  3091  TIP3   OH2 25479  -0.834000  15.999400
25480         HT  3091  TIP3    H1 25480   0.417000   1.008000
25481         HT  3091  TIP3    H2 25481   0.417000   1.008000
25482         OT  3092  TIP3   OH2 25482  -0.834000  15.999400
25483         HT  3092  TIP3    H1 25483   0.417000   1.008000
25484         HT  3092  TIP3    H2 25484   0.417000   1.008000
25485         OT  3093  TIP3   OH2 25485  -0.834000  15.999400
25486         HT  3093  TIP3    H1 25486   0.417000   1.008000
25487         HT  3093  TIP3    H2 25487   0.417000   1.008000
25488         OT  3094  TIP3   OH2 25488  -0.834000  15.999400
25489         HT  3094  TIP3    H1 25489   0.417000   1.008000
25490         HT  3094  TIP3    H2 25490   0.417000   1.008000
25491         OT  3095  TIP3   OH2 25491  -0.834000  15.999400
25492         HT  3095  TIP3    H1 25492   0.417000   1.008000
25493         HT  3095  TIP3    H2 25493   0.417000   1.008000
25494         OT  3096  TIP3   OH2 25494  -0.834000  15.999400
25495         HT  3096  TIP3    H1 25495   0.417000   1.008000
25496         HT  3096  TIP3    H2 25496   0.417000   1.008000
25497         OT  3097  TIP3   OH2 25497  -0.834000  15.999400
25498         HT  3097  TIP3    H1 25498   0.417000   1.008000
25499         HT  3097  TIP3    H2 25499   0.417000   1.008000
25500         OT  3098  TIP3   OH2 25500  -0.834000  15.999400
25501         HT  3098  TIP3    H1 25501   0.417000   1.008000
25502         HT  3098  TIP3    H2 25502   0.417000   1.008000
25503         OT  3099  TIP3   OH2 25503  -0.834000  15.999400
25504         HT  3099  TIP3    H1 25504   0.417000   1.008000
25505         HT  3099  TIP3    H2 25505   0.417000   1.008000
25506         OT  3100  TIP3   OH2 25506  -0.834000  15.999400
25507         HT  3100  TIP3    H1 25507   0.417000   1.008000
25508         HT  3100  TIP3    H2 25508   0.417000   1.008000
25509         OT  3101  TIP3   OH2 25509  -0.834000  15.999400
25510         HT  3101  TIP3    H1 25510   0.417000   1.008000
25511         HT  3101  TIP3    H2 25511   0.417000   1.008000
25512         OT  3102  TIP3   OH2 25512  -0.834000  15.999400
25513         HT  3102  TIP3    H1 25513   0.417000   1.008000
25514         HT  3102  TIP3    H2 25514   0.417000   1.008000
25515         OT  3103  TIP3   OH2 25515  -0.834000  15.999400
25516         HT  3103  TIP3    H1 25516   0.417000   1.008000
25517         HT  3103  TIP3    H2 25517   0.417000   1.008000
25518         OT  3104  TIP3   OH2 25518  -0.834000  15.999400
25519         HT  3104  TIP3    H1 25519   0.417000   1.008000
25520         HT  3104  TIP3    H2 25520   0.417000   1.008000
25521         OT  3105  TIP3   OH2 25521  -0.834000  15.999400
25522         HT  3105  TIP3    H1 25522   0.417000   1.008000
25523         HT  3105  TIP3    H2 25523   0.417000   1.008000
25524         OT  3106  TIP3   OH2 25524  -0.834000  15.999400
25525         HT  3106  TIP3    H1 25525   0.417000   1.008000
25526         HT  3106  TIP3    H2 25526   0.417000   1.008000
25527         OT  3107  TIP3   OH2 25527  -0.834000  15.999400
25528         HT  3107  TIP3    H1 25528   0.417000   1.008000
25529         HT  3107  TIP3    H2 25529   0.417000   1.008000
25530         OT  3108  TIP3   OH2 25530  -0.834000  15.999400
25531         HT  3108  TIP3    H1 25531   0.417000   1.008000
25532         HT  3108  TIP3    H2 25532   0.417000   1.008000
25533         OT  3109  TIP3   OH2 25533  -0.834000  15.999400
25534         HT  3109  TIP3    H1 25534   0.417000   1.008000
25535         HT  3109  TIP3    H2 25535   0.417000   1.008000
25536         OT  3110  TIP3   OH2 25536  -0.834000  15.999400
25537         HT  3110  TIP3    H1 25537   0.417000   1.008000
25538         HT  3110  TIP3    H2 25538   0.417000   1.008000
25539         OT  3111  TIP3   OH2 25539  -0.834000  15.999400
25540         HT  3111  TIP3    H1 25540   0.417000   1.008000
25541         HT  3111  TIP3    H2 25541   0.417000   1.008000
25542         OT  3112  TIP3   OH2 25542  -0.834000  15.999400
25543         HT  3112  TIP3    H1 25543   0.417000   1.008000
25544         HT  3112  TIP3    H2 25544   0.417000   1.008000
25545         OT  3113  TIP3   OH2 25545  -0.834000  15.999400
25546         HT  3113  TIP3    H1 25546   0.417000   1.008000
25547         HT  3113  TIP3    H2 25547   0.417000   1.008000
25548         OT  3114  TIP3   OH2 25548  -0.834000  15.999400
25549         HT  3114  TIP3    H1 25549   0.417000   1.008000
25550         HT  3114  TIP3    H2 25550   0.417000   1.008000
25551         OT  3115  TIP3   OH2 25551  -0.834000  15.999400
25552         HT  3115  TIP3    H1 25552   0.417000   1.008000
25553         HT  3115  TIP3    H2 25553   0.417000   1.008000
25554         OT  3116  TIP3   OH2 25554  -0.834000  15.999400
25555         HT  3116  TIP3    H1 25555   0.417000   1.008000
25556         HT  3116  TIP3    H2 25556   0.417000   1.008000
25557         OT  3117  TIP3   OH2 25557  -0.834000  15.999400
25558         HT  3117  TIP3    H1 25558   0.417000   1.008000
25559         HT  3117  TIP3    H2 25559   0.417000   1.008000
25560         OT  3118  TIP3   OH2 25560  -0.834000  15.999400
25561         HT  3118  TIP3    H1 25561   0.417000   1.008000
25562         HT  3118  TIP3    H2 25562   0.417000   1.008000
25563         OT  3119  TIP3   OH2 25563  -0.834000  15.999400
25564         HT  3119  TIP3    H1 25564   0.417000   1.008000
25565         HT  3119  TIP3    H2 25565   0.417000   1.008000
25566         OT  3120  TIP3   OH2 25566  -0.834000  15.999400
25567         HT  3120  TIP3    H1 25567   0.417000   1.008000
25568         HT  3120  TIP3    H2 25568   0.417000   1.008000
25569         OT  3121  TIP3   OH2 25569  -0.834000  15.999400
25570         HT  3121  TIP3    H1 25570   0.417000   1.008000
25571         HT  3121  TIP3    H2 25571   0.417000   1.008000
25572         OT  3122  TIP3   OH2 25572  -0.834000  15.999400
25573         HT  3122  TIP3    H1 25573   0.417000   1.008000
25574         HT  3122  TIP3    H2 25574   0.417000   1.008000
25575         OT  3123  TIP3   OH2 25575  -0.834000  15.999400
25576         HT  3123  TIP3    H1 25576   0.417000   1.008000
25577         HT  3123  TIP3    H2 25577   0.417000   1.008000
25578         OT  3124  TIP3   OH2 25578  -0.834000  15.999400
25579         HT  3124  TIP3    H1 25579   0.417000   1.008000
25580         HT  3124  TIP3    H2 25580   0.417000   1.008000
25581         OT  3125  TIP3   OH2 25581  -0.834000  15.999400
25582         HT  3125  TIP3    H1 25582   0.417000   1.008000
25583         HT  3125  TIP3    H2 25583   0.417000   1.008000
25584         OT  3126  TIP3   OH2 25584  -0.834000  15.999400
25585         HT  3126  TIP3    H1 25585   0.417000   1.008000
25586         HT  3126  TIP3    H2 25586   0.417000   1.008000
25587         OT  3127  TIP3   OH2 25587  -0.834000  15.999400
25588         HT  3127  TIP3    H1 25588   0.417000   1.008000
25589         HT  3127  TIP3    H2 25589   0.417000   1.008000
25590         OT  3128  TIP3   OH2 25590  -0.834000  15.999400
25591         HT  3128  TIP3    H1 25591   0.417000   1.008000
25592         HT  3128  TIP3    H2 25592   0.417000   1.008000
25593         OT  3129  TIP3   OH2 25593  -0.834000  15.999400
25594         HT  3129  TIP3    H1 25594   0.417000   1.008000
25595         HT  3129  TIP3    H2 25595   0.417000   1.008000
25596         OT  3130  TIP3   OH2 25596  -0.834000  15.999400
25597         HT  3130  TIP3    H1 25597   0.417000   1.008000
25598         HT  3130  TIP3    H2 25598   0.417000   1.008000
25599         OT  3131  TIP3   OH2 25599  -0.834000  15.999400
25600         HT  3131  TIP3    H1 25600   0.417000   1.008000
25601         HT  3131  TIP3    H2 25601   0.417000   1.008000
25602         OT  3132  TIP3   OH2 25602  -0.834000  15.999400
25603         HT  3132  TIP3    H1 25603   0.417000   1.008000
25604         HT  3132  TIP3    H2 25604   0.417000   1.008000
25605         OT  3133  TIP3   OH2 25605  -0.834000  15.999400
25606         HT  3133  TIP3    H1 25606   0.417000   1.008000
25607         HT  3133  TIP3    H2 25607   0.417000   1.008000
25608         OT  3134  TIP3   OH2 25608  -0.834000  15.999400
25609         HT  3134  TIP3    H1 25609   0.417000   1.008000
25610         HT  3134  TIP3    H2 25610   0.417000   1.008000
25611         OT  3135  TIP3   OH2 25611  -0.834000  15.999400
25612         HT  3135  TIP3    H1 25612   0.417000   1.008000
25613         HT  3135  TIP3    H2 25613   0.417000   1.008000
25614         OT  3136  TIP3   OH2 25614  -0.834000  15.999400
25615         HT  3136  TIP3    H1 25615   0.417000   1.008000
25616         HT  3136  TIP3    H2 25616   0.417000   1.008000
25617         OT  3137  TIP3   OH2 25617  -0.834000  15.999400
25618         HT  3137  TIP3    H1 25618   0.417000   1.008000
25619         HT  3137  TIP3    H2 25619   0.417000   1.008000
25620         OT  3138  TIP3   OH2 25620  -0.834000  15.999400
25621         HT  3138  TIP3    H1 25621   0.417000   1.008000
25622         HT  3138  TIP3    H2 25622   0.417000   1.008000
25623         OT  3139  TIP3   OH2 25623  -0.834000  15.999400
25624         HT  3139  TIP3    H1 25624   0.417000   1.008000
25625         HT  3139  TIP3    H2 25625   0.417000   1.008000
25626         OT  3140  TIP3   OH2 25626  -0.834000  15.999400
25627         HT  3140  TIP3    H1 25627   0.417000   1.008000
25628         HT  3140  TIP3    H2 25628   0.417000   1.008000
25629         OT  3141  TIP3   OH2 25629  -0.834000  15.999400
25630         HT  3141  TIP3    H1 25630   0.417000   1.008000
25631         HT  3141  TIP3    H2 25631   0.417000   1.008000
25632         OT  3142  TIP3   OH2 25632  -0.834000  15.999400
25633         HT  3142  TIP3    H1 25633   0.417000   1.008000
25634         HT  3142  TIP3    H2 25634   0.417000   1.008000
25635         OT  3143  TIP3   OH2 25635  -0.834000  15.999400
25636         HT  3143  TIP3    H1 25636   0.417000   1.008000
25637         HT  3143  TIP3    H2 25637   0.417000   1.008000
25638         OT  3144  TIP3   OH2 25638  -0.834000  15.999400
25639         HT  3144  TIP3    H1 25639   0.417000   1.008000
25640         HT  3144  TIP3    H2 25640   0.417000   1.008000
25641         OT  3145  TIP3   OH2 25641  -0.834000  15.999400
25642         HT  3145  TIP3    H1 25642   0.417000   1.008000
25643         HT  3145  TIP3    H2 25643   0.417000   1.008000
25644         OT  3146  TIP3   OH2 25644  -0.834000  15.999400
25645         HT  3146  TIP3    H1 25645   0.417000   1.008000
25646         HT  3146  TIP3    H2 25646   0.417000   1.008000
25647         OT  3147  TIP3   OH2 25647  -0.834000  15.999400
25648         HT  3147  TIP3    H1 25648   0.417000   1.008000
25649         HT  3147  TIP3    H2 25649   0.417000   1.008000
25650         OT  3148  TIP3   OH2 25650  -0.834000  15.999400
25651         HT  3148  TIP3    H1 25651   0.417000   1.008000
25652         HT  3148  TIP3    H2 25652   0.417000   1.008000
25653         OT  3149  TIP3   OH2 25653  -0.834000  15.999400
25654         HT  3149  TIP3    H1 25654   0.417000   1.008000
25655         HT  3149  TIP3    H2 25655   0.417000   1.008000
25656         OT  3150  TIP3   OH2 25656  -0.834000  15.999400
25657         HT  3150  TIP3    H1 25657   0.417000   1.008000
25658         HT  3150  TIP3    H2 25658   0.417000   1.008000
25659         OT  3151  TIP3   OH2 25659  -0.834000  15.999400
25660         HT  3151  TIP3    H1 25660   0.417000   1.008000
25661         HT  3151  TIP3    H2 25661   0.417000   1.008000
25662         OT  3152  TIP3   OH2 25662  -0.834000  15.999400
25663         HT  3152  TIP3    H1 25663   0.417000   1.008000
25664         HT  3152  TIP3    H2 25664   0.417000   1.008000
25665         OT  3153  TIP3   OH2 25665  -0.834000  15.999400
25666         HT  3153  TIP3    H1 25666   0.417000   1.008000
25667         HT  3153  TIP3    H2 25667   0.417000   1.008000
25668         OT  3154  TIP3   OH2 25668  -0.834000  15.999400
25669         HT  3154  TIP3    H1 25669   0.417000   1.008000
25670         HT  3154  TIP3    H2 25670   0.417000   1.008000
25671         OT  3155  TIP3   OH2 25671  -0.834000  15.999400
25672         HT  3155  TIP3    H1 25672   0.417000   1.008000
25673         HT  3155  TIP3    H2 25673   0.417000   1.008000
25674         OT  3156  TIP3   OH2 25674  -0.834000  15.999400
25675         HT  3156  TIP3    H1 25675   0.417000   1.008000
25676         HT  3156  TIP3    H2 25676   0.417000   1.008000
25677         OT  3157  TIP3   OH2 25677  -0.834000  15.999400
25678         HT  3157  TIP3    H1 25678   0.417000   1.008000
25679         HT  3157  TIP3    H2 25679   0.417000   1.008000
25680         OT  3158  TIP3   OH2 25680  -0.834000  15.999400
25681         HT  3158  TIP3    H1 25681   0.417000   1.008000
25682         HT  3158  TIP3    H2 25682   0.417000   1.008000
25683         OT  3159  TIP3   OH2 25683  -0.834000  15.999400
25684         HT  3159  TIP3    H1 25684   0.417000   1.008000
25685         HT  3159  TIP3    H2 25685   0.417000   1.008000
25686         OT  3160  TIP3   OH2 25686  -0.834000  15.999400
25687         HT  3160  TIP3    H1 25687   0.417000   1.008000
25688         HT  3160  TIP3    H2 25688   0.417000   1.008000
25689         OT  3161  TIP3   OH2 25689  -0.834000  15.999400
25690         HT  3161  TIP3    H1 25690   0.417000   1.008000
25691         HT  3161  TIP3    H2 25691   0.417000   1.008000
25692         OT  3162  TIP3   OH2 25692  -0.834000  15.999400
25693         HT  3162  TIP3    H1 25693   0.417000   1.008000
25694         HT  3162  TIP3    H2 25694   0.417000   1.008000
25695         OT  3163  TIP3   OH2 25695  -0.834000  15.999400
25696         HT  3163  TIP3    H1 25696   0.417000   1.008000
25697         HT  3163  TIP3    H2 25697   0.417000   1.008000
25698         OT  3164  TIP3   OH2 25698  -0.834000  15.999400
25699         HT  3164  TIP3    H1 25699   0.417000   1.008000
25700         HT  3164  TIP3    H2 25700   0.417000   1.008000
25701         OT  3165  TIP3   OH2 25701  -0.834000  15.999400
25702         HT  3165  TIP3    H1 25702   0.417000   1.008000
25703         HT  3165  TIP3    H2 25703   0.417000   1.008000
25704         OT  3166  TIP3   OH2 25704  -0.834000  15.999400
25705         HT  3166  TIP3    H1 25705   0.417000   1.008000
25706         HT  3166  TIP3    H2 25706   0.417000   1.008000
25707         OT  3167  TIP3   OH2 25707  -0.834000  15.999400
25708         HT  3167  TIP3    H1 25708   0.417000   1.008000
25709         HT  3167  TIP3    H2 25709   0.417000   1.008000
25710         OT  3168  TIP3   OH2 25710  -0.834000  15.999400
25711         HT  3168  TIP3    H1 25711   0.417000   1.008000
25712         HT  3168  TIP3    H2 25712   0.417000   1.008000
25713         OT  3169  TIP3   OH2 25713  -0.834000  15.999400
25714         HT  3169  TIP3    H1 25714   0.417000   1.008000
25715         HT  3169  TIP3    H2 25715   0.417000   1.008000
25716         OT  3170  TIP3   OH2 25716  -0.834000  15.999400
25717         HT  3170  TIP3    H1 25717   0.417000   1.008000
25718         HT  3170  TIP3    H2 25718   0.417000   1.008000
25719         OT  3171  TIP3   OH2 25719  -0.834000  15.999400
25720         HT  3171  TIP3    H1 25720   0.417000   1.008000
25721         HT  3171  TIP3    H2 25721   0.417000   1.008000
25722         OT  3172  TIP3   OH2 25722  -0.834000  15.999400
25723         HT  3172  TIP3    H1 25723   0.417000   1.008000
25724         HT  3172  TIP3    H2 25724   0.417000   1.008000
25725         OT  3173  TIP3   OH2 25725  -0.834000  15.999400
25726         HT  3173  TIP3    H1 25726   0.417000   1.008000
25727         HT  3173  TIP3    H2 25727   0.417000   1.008000
25728         OT  3174  TIP3   OH2 25728  -0.834000  15.999400
25729         HT  3174  TIP3    H1 25729   0.417000   1.008000
25730         HT  3174  TIP3    H2 25730   0.417000   1.008000
25731         OT  3175  TIP3   OH2 25731  -0.834000  15.999400
25732         HT  3175  TIP3    H1 25732   0.417000   1.008000
25733         HT  3175  TIP3    H2 25733   0.417000   1.008000
25734         OT  3176  TIP3   OH2 25734  -0.834000  15.999400
25735         HT  3176  TIP3    H1 25735   0.417000   1.008000
25736         HT  3176  TIP3    H2 25736   0.417000   1.008000
25737         OT  3177  TIP3   OH2 25737  -0.834000  15.999400
25738         HT  3177  TIP3    H1 25738   0.417000   1.008000
25739         HT  3177  TIP3    H2 25739   0.417000   1.008000
25740         OT  3178  TIP3   OH2 25740  -0.834000  15.999400
25741         HT  3178  TIP3    H1 25741   0.417000   1.008000
25742         HT  3178  TIP3    H2 25742   0.417000   1.008000
25743         OT  3179  TIP3   OH2 25743  -0.834000  15.999400
25744         HT  3179  TIP3    H1 25744   0.417000   1.008000
25745         HT  3179  TIP3    H2 25745   0.417000   1.008000
25746         OT  3180  TIP3   OH2 25746  -0.834000  15.999400
25747         HT  3180  TIP3    H1 25747   0.417000   1.008000
25748         HT  3180  TIP3    H2 25748   0.417000   1.008000
25749         OT  3181  TIP3   OH2 25749  -0.834000  15.999400
25750         HT  3181  TIP3    H1 25750   0.417000   1.008000
25751         HT  3181  TIP3    H2 25751   0.417000   1.008000
25752         OT  3182  TIP3   OH2 25752  -0.834000  15.999400
25753         HT  3182  TIP3    H1 25753   0.417000   1.008000
25754         HT  3182  TIP3    H2 25754   0.417000   1.008000
25755         OT  3183  TIP3   OH2 25755  -0.834000  15.999400
25756         HT  3183  TIP3    H1 25756   0.417000   1.008000
25757         HT  3183  TIP3    H2 25757   0.417000   1.008000
25758         OT  3184  TIP3   OH2 25758  -0.834000  15.999400
25759         HT  3184  TIP3    H1 25759   0.417000   1.008000
25760         HT  3184  TIP3    H2 25760   0.417000   1.008000
25761         OT  3185  TIP3   OH2 25761  -0.834000  15.999400
25762         HT  3185  TIP3    H1 25762   0.417000   1.008000
25763         HT  3185  TIP3    H2 25763   0.417000   1.008000
25764         OT  3186  TIP3   OH2 25764  -0.834000  15.999400
25765         HT  3186  TIP3    H1 25765   0.417000   1.008000
25766         HT  3186  TIP3    H2 25766   0.417000   1.008000
25767         OT  3187  TIP3   OH2 25767  -0.834000  15.999400
25768         HT  3187  TIP3    H1 25768   0.417000   1.008000
25769         HT  3187  TIP3    H2 25769   0.417000   1.008000
25770         OT  3188  TIP3   OH2 25770  -0.834000  15.999400
25771         HT  3188  TIP3    H1 25771   0.417000   1.008000
25772         HT  3188  TIP3    H2 25772   0.417000   1.008000
25773         OT  3189  TIP3   OH2 25773  -0.834000  15.999400
25774         HT  3189  TIP3    H1 25774   0.417000   1.008000
25775         HT  3189  TIP3    H2 25775   0.417000   1.008000
25776         OT  3190  TIP3   OH2 25776  -0.834000  15.999400
25777         HT  3190  TIP3    H1 25777   0.417000   1.008000
25778         HT  3190  TIP3    H2 25778   0.417000   1.008000
25779         OT  3191  TIP3   OH2 25779  -0.834000  15.999400
25780         HT  3191  TIP3    H1 25780   0.417000   1.008000
25781         HT  3191  TIP3    H2 25781   0.417000   1.008000
25782         OT  3192  TIP3   OH2 25782  -0.834000  15.999400
25783         HT  3192  TIP3    H1 25783   0.417000   1.008000
25784         HT  3192  TIP3    H2 25784   0.417000   1.008000
25785         OT  3193  TIP3   OH2 25785  -0.834000  15.999400
25786         HT  3193  TIP3    H1 25786   0.417000   1.008000
25787         HT  3193  TIP3    H2 25787   0.417000   1.008000
25788         OT  3194  TIP3   OH2 25788  -0.834000  15.999400
25789         HT  3194  TIP3    H1 25789   0.417000   1.008000
25790         HT  3194  TIP3    H2 25790   0.417000   1.008000
25791         OT  3195  TIP3   OH2 25791  -0.834000  15.999400
25792         HT  3195  TIP3    H1 25792   0.417000   1.008000
25793         HT  3195  TIP3    H2 25793   0.417000   1.008000
25794         OT  3196  TIP3   OH2 25794  -0.834000  15.999400
25795         HT  3196  TIP3    H1 25795   0.417000   1.008000
25796         HT  3196  TIP3    H2 25796   0.417000   1.008000
25797         OT  3197  TIP3   OH2 25797  -0.834000  15.999400
25798         HT  3197  TIP3    H1 25798   0.417000   1.008000
25799         HT  3197  TIP3    H2 25799   0.417000   1.008000
25800         OT  3198  TIP3   OH2 25800  -0.834000  15.999400
25801         HT  3198  TIP3    H1 25801   0.417000   1.008000
25802         HT  3198  TIP3    H2 25802   0.417000   1.008000
25803         OT  3199  TIP3   OH2 25803  -0.834000  15.999400
25804         HT  3199  TIP3    H1 25804   0.417000   1.008000
25805         HT  3199  TIP3    H2 25805   0.417000   1.008000
25806         OT  3200  TIP3   OH2 25806  -0.834000  15.999400
25807         HT  3200  TIP3    H1 25807   0.417000   1.008000
25808         HT  3200  TIP3    H2 25808   0.417000   1.008000
25809         OT  3201  TIP3   OH2 25809  -0.834000  15.999400
25810         HT  3201  TIP3    H1 25810   0.417000   1.008000
25811         HT  3201  TIP3    H2 25811   0.417000   1.008000
25812         OT  3202  TIP3   OH2 25812  -0.834000  15.999400
25813         HT  3202  TIP3    H1 25813   0.417000   1.008000
25814         HT  3202  TIP3    H2 25814   0.417000   1.008000
25815         OT  3203  TIP3   OH2 25815  -0.834000  15.999400
25816         HT  3203  TIP3    H1 25816   0.417000   1.008000
25817         HT  3203  TIP3    H2 25817   0.417000   1.008000
25818         OT  3204  TIP3   OH2 25818  -0.834000  15.999400
25819         HT  3204  TIP3    H1 25819   0.417000   1.008000
25820         HT  3204  TIP3    H2 25820   0.417000   1.008000
25821         OT  3205  TIP3   OH2 25821  -0.834000  15.999400
25822         HT  3205  TIP3    H1 25822   0.417000   1.008000
25823         HT  3205  TIP3    H2 25823   0.417000   1.008000
25824         OT  3206  TIP3   OH2 25824  -0.834000  15.999400
25825         HT  3206  TIP3    H1 25825   0.417000   1.008000
25826         HT  3206  TIP3    H2 25826   0.417000   1.008000
25827         OT  3207  TIP3   OH2 25827  -0.834000  15.999400
25828         HT  3207  TIP3    H1 25828   0.417000   1.008000
25829         HT  3207  TIP3    H2 25829   0.417000   1.008000
25830         OT  3208  TIP3   OH2 25830  -0.834000  15.999400
25831         HT  3208  TIP3    H1 25831   0.417000   1.008000
25832         HT  3208  TIP3    H2 25832   0.417000   1.008000
25833         OT  3209  TIP3   OH2 25833  -0.834000  15.999400
25834         HT  3209  TIP3    H1 25834   0.417000   1.008000
25835         HT  3209  TIP3    H2 25835   0.417000   1.008000
25836         OT  3210  TIP3   OH2 25836  -0.834000  15.999400
25837         HT  3210  TIP3    H1 25837   0.417000   1.008000
25838         HT  3210  TIP3    H2 25838   0.417000   1.008000
25839         OT  3211  TIP3   OH2 25839  -0.834000  15.999400
25840         HT  3211  TIP3    H1 25840   0.417000   1.008000
25841         HT  3211  TIP3    H2 25841   0.417000   1.008000
25842         OT  3212  TIP3   OH2 25842  -0.834000  15.999400
25843         HT  3212  TIP3    H1 25843   0.417000   1.008000
25844         HT  3212  TIP3    H2 25844   0.417000   1.008000
25845         OT  3213  TIP3   OH2 25845  -0.834000  15.999400
25846         HT  3213  TIP3    H1 25846   0.417000   1.008000
25847         HT  3213  TIP3    H2 25847   0.417000   1.008000
25848         OT  3214  TIP3   OH2 25848  -0.834000  15.999400
25849         HT  3214  TIP3    H1 25849   0.417000   1.008000
25850         HT  3214  TIP3    H2 25850   0.417000   1.008000
25851         OT  3215  TIP3   OH2 25851  -0.834000  15.999400
25852         HT  3215  TIP3    H1 25852   0.417000   1.008000
25853         HT  3215  TIP3    H2 25853   0.417000   1.008000
25854         OT  3216  TIP3   OH2 25854  -0.834000  15.999400
25855         HT  3216  TIP3    H1 25855   0.417000   1.008000
25856         HT  3216  TIP3    H2 25856   0.417000   1.008000
25857         OT  3217  TIP3   OH2 25857  -0.834000  15.999400
25858         HT  3217  TIP3    H1 25858   0.417000   1.008000
25859         HT  3217  TIP3    H2 25859   0.417000   1.008000
25860         OT  3218  TIP3   OH2 25860  -0.834000  15.999400
25861         HT  3218  TIP3    H1 25861   0.417000   1.008000
25862         HT  3218  TIP3    H2 25862   0.417000   1.008000
25863         OT  3219  TIP3   OH2 25863  -0.834000  15.999400
25864         HT  3219  TIP3    H1 25864   0.417000   1.008000
25865         HT  3219  TIP3    H2 25865   0.417000   1.008000
25866         OT  3220  TIP3   OH2 25866  -0.834000  15.999400
25867         HT  3220  TIP3    H1 25867   0.417000   1.008000
25868         HT  3220  TIP3    H2 25868   0.417000   1.008000
25869         OT  3221  TIP3   OH2 25869  -0.834000  15.999400
25870         HT  3221  TIP3    H1 25870   0.417000   1.008000
25871         HT  3221  TIP3    H2 25871   0.417000   1.008000
25872         OT  3222  TIP3   OH2 25872  -0.834000  15.999400
25873         HT  3222  TIP3    H1 25873   0.417000   1.008000
25874         HT  3222  TIP3    H2 25874   0.417000   1.008000
25875         OT  3223  TIP3   OH2 25875  -0.834000  15.999400
25876         HT  3223  TIP3    H1 25876   0.417000   1.008000
25877         HT  3223  TIP3    H2 25877   0.417000   1.008000
25878         OT  3224  TIP3   OH2 25878  -0.834000  15.999400
25879         HT  3224  TIP3    H1 25879   0.417000   1.008000
25880         HT  3224  TIP3    H2 25880   0.417000   1.008000
25881         OT  3225  TIP3   OH2 25881  -0.834000  15.999400
25882         HT  3225  TIP3    H1 25882   0.417000   1.008000
25883         HT  3225  TIP3    H2 25883   0.417000   1.008000
25884         OT  3226  TIP3   OH2 25884  -0.834000  15.999400
25885         HT  3226  TIP3    H1 25885   0.417000   1.008000
25886         HT  3226  TIP3    H2 25886   0.417000   1.008000
25887         OT  3227  TIP3   OH2 25887  -0.834000  15.999400
25888         HT  3227  TIP3    H1 25888   0.417000   1.008000
25889         HT  3227  TIP3    H2 25889   0.417000   1.008000
25890         OT  3228  TIP3   OH2 25890  -0.834000  15.999400
25891         HT  3228  TIP3    H1 25891   0.417000   1.008000
25892         HT  3228  TIP3    H2 25892   0.417000   1.008000
25893         OT  3229  TIP3   OH2 25893  -0.834000  15.999400
25894         HT  3229  TIP3    H1 25894   0.417000   1.008000
25895         HT  3229  TIP3    H2 25895   0.417000   1.008000
25896         OT  3230  TIP3   OH2 25896  -0.834000  15.999400
25897         HT  3230  TIP3    H1 25897   0.417000   1.008000
25898         HT  3230  TIP3    H2 25898   0.417000   1.008000
25899         OT  3231  TIP3   OH2 25899  -0.834000  15.999400
25900         HT  3231  TIP3    H1 25900   0.417000   1.008000
25901         HT  3231  TIP3    H2 25901   0.417000   1.008000
25902         OT  3232  TIP3   OH2 25902  -0.834000  15.999400
25903         HT  3232  TIP3    H1 25903   0.417000   1.008000
25904         HT  3232  TIP3    H2 25904   0.417000   1.008000
25905         OT  3233  TIP3   OH2 25905  -0.834000  15.999400
25906         HT  3233  TIP3    H1 25906   0.417000   1.008000
25907         HT  3233  TIP3    H2 25907   0.417000   1.008000
25908         OT  3234  TIP3   OH2 25908  -0.834000  15.999400
25909         HT  3234  TIP3    H1 25909   0.417000   1.008000
25910         HT  3234  TIP3    H2 25910   0.417000   1.008000
25911         OT  3235  TIP3   OH2 25911  -0.834000  15.999400
25912         HT  3235  TIP3    H1 25912   0.417000   1.008000
25913         HT  3235  TIP3    H2 25913   0.417000   1.008000
25914         OT  3236  TIP3   OH2 25914  -0.834000  15.999400
25915         HT  3236  TIP3    H1 25915   0.417000   1.008000
25916         HT  3236  TIP3    H2 25916   0.417000   1.008000
25917         OT  3237  TIP3   OH2 25917  -0.834000  15.999400
25918         HT  3237  TIP3    H1 25918   0.417000   1.008000
25919         HT  3237  TIP3    H2 25919   0.417000   1.008000
25920         OT  3238  TIP3   OH2 25920  -0.834000  15.999400
25921         HT  3238  TIP3    H1 25921   0.417000   1.008000
25922         HT  3238  TIP3    H2 25922   0.417000   1.008000
25923         OT  3239  TIP3   OH2 25923  -0.834000  15.999400
25924         HT  3239  TIP3    H1 25924   0.417000   1.008000
25925         HT  3239  TIP3    H2 25925   0.417000   1.008000
25926         OT  3240  TIP3   OH2 25926  -0.834000  15.999400
25927         HT  3240  TIP3    H1 25927   0.417000   1.008000
25928         HT  3240  TIP3    H2 25928   0.417000   1.008000
25929         OT  3241  TIP3   OH2 25929  -0.834000  15.999400
25930         HT  3241  TIP3    H1 25930   0.417000   1.008000
25931         HT  3241  TIP3    H2 25931   0.417000   1.008000
25932         OT  3242  TIP3   OH2 25932  -0.834000  15.999400
25933         HT  3242  TIP3    H1 25933   0.417000   1.008000
25934         HT  3242  TIP3    H2 25934   0.417000   1.008000
25935         OT  3243  TIP3   OH2 25935  -0.834000  15.999400
25936         HT  3243  TIP3    H1 25936   0.417000   1.008000
25937         HT  3243  TIP3    H2 25937   0.417000   1.008000
25938         OT  3244  TIP3   OH2 25938  -0.834000  15.999400
25939         HT  3244  TIP3    H1 25939   0.417000   1.008000
25940         HT  3244  TIP3    H2 25940   0.417000   1.008000
25941         OT  3245  TIP3   OH2 25941  -0.834000  15.999400
25942         HT  3245  TIP3    H1 25942   0.417000   1.008000
25943         HT  3245  TIP3    H2 25943   0.417000   1.008000
25944         OT  3246  TIP3   OH2 25944  -0.834000  15.999400
25945         HT  3246  TIP3    H1 25945   0.417000   1.008000
25946         HT  3246  TIP3    H2 25946   0.417000   1.008000
25947         OT  3247  TIP3   OH2 25947  -0.834000  15.999400
25948         HT  3247  TIP3    H1 25948   0.417000   1.008000
25949         HT  3247  TIP3    H2 25949   0.417000   1.008000
25950         OT  3248  TIP3   OH2 25950  -0.834000  15.999400
25951         HT  3248  TIP3    H1 25951   0.417000   1.008000
25952         HT  3248  TIP3    H2 25952   0.417000   1.008000
25953         OT  3249  TIP3   OH2 25953  -0.834000  15.999400
25954         HT  3249  TIP3    H1 25954   0.417000   1.008000
25955         HT  3249  TIP3    H2 25955   0.417000   1.008000
25956         OT  3250  TIP3   OH2 25956  -0.834000  15.999400
25957         HT  3250  TIP3    H1 25957   0.417000   1.008000
25958         HT  3250  TIP3    H2 25958   0.417000   1.008000
25959         OT  3251  TIP3   OH2 25959  -0.834000  15.999400
25960         HT  3251  TIP3    H1 25960   0.417000   1.008000
25961         HT  3251  TIP3    H2 25961   0.417000   1.008000
25962         OT  3252  TIP3   OH2 25962  -0.834000  15.999400
25963         HT  3252  TIP3    H1 25963   0.417000   1.008000
25964         HT  3252  TIP3    H2 25964   0.417000   1.008000
25965         OT  3253  TIP3   OH2 25965  -0.834000  15.999400
25966         HT  3253  TIP3    H1 25966   0.417000   1.008000
25967         HT  3253  TIP3    H2 25967   0.417000   1.008000
25968         OT  3254  TIP3   OH2 25968  -0.834000  15.999400
25969         HT  3254  TIP3    H1 25969   0.417000   1.008000
25970         HT  3254  TIP3    H2 25970   0.417000   1.008000
25971         OT  3255  TIP3   OH2 25971  -0.834000  15.999400
25972         HT  3255  TIP3    H1 25972   0.417000   1.008000
25973         HT  3255  TIP3    H2 25973   0.417000   1.008000
25974         OT  3256  TIP3   OH2 25974  -0.834000  15.999400
25975         HT  3256  TIP3    H1 25975   0.417000   1.008000
25976         HT  3256  TIP3    H2 25976   0.417000   1.008000
25977         OT  3257  TIP3   OH2 25977  -0.834000  15.999400
25978         HT  3257  TIP3    H1 25978   0.417000   1.008000
25979         HT  3257  TIP3    H2 25979   0.417000   1.008000
25980         OT  3258  TIP3   OH2 25980  -0.834000  15.999400
25981         HT  3258  TIP3    H1 25981   0.417000   1.008000
25982         HT  3258  TIP3    H2 25982   0.417000   1.008000
25983         OT  3259  TIP3   OH2 25983  -0.834000  15.999400
25984         HT  3259  TIP3    H1 25984   0.417000   1.008000
25985         HT  3259  TIP3    H2 25985   0.417000   1.008000
25986         OT  3260  TIP3   OH2 25986  -0.834000  15.999400
25987         HT  3260  TIP3    H1 25987   0.417000   1.008000
25988         HT  3260  TIP3    H2 25988   0.417000   1.008000
25989         OT  3261  TIP3   OH2 25989  -0.834000  15.999400
25990         HT  3261  TIP3    H1 25990   0.417000   1.008000
25991         HT  3261  TIP3    H2 25991   0.417000   1.008000
25992         OT  3262  TIP3   OH2 25992  -0.834000  15.999400
25993         HT  3262  TIP3    H1 25993   0.417000   1.008000
25994         HT  3262  TIP3    H2 25994   0.417000   1.008000
25995         OT  3263  TIP3   OH2 25995  -0.834000  15.999400
25996         HT  3263  TIP3    H1 25996   0.417000   1.008000
25997         HT  3263  TIP3    H2 25997   0.417000   1.008000
25998         OT  3264  TIP3   OH2 25998  -0.834000  15.999400
25999         HT  3264  TIP3    H1 25999   0.417000   1.008000
26000         HT  3264  TIP3    H2 26000   0.417000   1.008000
26001         OT  3265  TIP3   OH2 26001  -0.834000  15.999400
26002         HT  3265  TIP3    H1 26002   0.417000   1.008000
26003         HT  3265  TIP3    H2 26003   0.417000   1.008000
26004         OT  3266  TIP3   OH2 26004  -0.834000  15.999400
26005         HT  3266  TIP3    H1 26005   0.417000   1.008000
26006         HT  3266  TIP3    H2 26006   0.417000   1.008000
26007         OT  3267  TIP3   OH2 26007  -0.834000  15.999400
26008         HT  3267  TIP3    H1 26008   0.417000   1.008000
26009         HT  3267  TIP3    H2 26009   0.417000   1.008000
26010         OT  3268  TIP3   OH2 26010  -0.834000  15.999400
26011         HT  3268  TIP3    H1 26011   0.417000   1.008000
26012         HT  3268  TIP3    H2 26012   0.417000   1.008000
26013         OT  3269  TIP3   OH2 26013  -0.834000  15.999400
26014         HT  3269  TIP3    H1 26014   0.417000   1.008000
26015         HT  3269  TIP3    H2 26015   0.417000   1.008000
26016         OT  3270  TIP3   OH2 26016  -0.834000  15.999400
26017         HT  3270  TIP3    H1 26017   0.417000   1.008000
26018         HT  3270  TIP3    H2 26018   0.417000   1.008000
26019         OT  3271  TIP3   OH2 26019  -0.834000  15.999400
26020         HT  3271  TIP3    H1 26020   0.417000   1.008000
26021         HT  3271  TIP3    H2 26021   0.417000   1.008000
26022         OT  3272  TIP3   OH2 26022  -0.834000  15.999400
26023         HT  3272  TIP3    H1 26023   0.417000   1.008000
26024         HT  3272  TIP3    H2 26024   0.417000   1.008000
26025         OT  3273  TIP3   OH2 26025  -0.834000  15.999400
26026         HT  3273  TIP3    H1 26026   0.417000   1.008000
26027         HT  3273  TIP3    H2 26027   0.417000   1.008000
26028         OT  3274  TIP3   OH2 26028  -0.834000  15.999400
26029         HT  3274  TIP3    H1 26029   0.417000   1.008000
26030         HT  3274  TIP3    H2 26030   0.417000   1.008000
26031         OT  3275  TIP3   OH2 26031  -0.834000  15.999400
26032         HT  3275  TIP3    H1 26032   0.417000   1.008000
26033         HT  3275  TIP3    H2 26033   0.417000   1.008000
26034         OT  3276  TIP3   OH2 26034  -0.834000  15.999400
26035         HT  3276  TIP3    H1 26035   0.417000   1.008000
26036         HT  3276  TIP3    H2 26036   0.417000   1.008000
26037         OT  3277  TIP3   OH2 26037  -0.834000  15.999400
26038         HT  3277  TIP3    H1 26038   0.417000   1.008000
26039         HT  3277  TIP3    H2 26039   0.417000   1.008000
26040         OT  3278  TIP3   OH2 26040  -0.834000  15.999400
26041         HT  3278  TIP3    H1 26041   0.417000   1.008000
26042         HT  3278  TIP3    H2 26042   0.417000   1.008000
26043         OT  3279  TIP3   OH2 26043  -0.834000  15.999400
26044         HT  3279  TIP3    H1 26044   0.417000   1.008000
26045         HT  3279  TIP3    H2 26045   0.417000   1.008000
26046         OT  3280  TIP3   OH2 26046  -0.834000  15.999400
26047         HT  3280  TIP3    H1 26047   0.417000   1.008000
26048         HT  3280  TIP3    H2 26048   0.417000   1.008000
26049         OT  3281  TIP3   OH2 26049  -0.834000  15.999400
26050         HT  3281  TIP3    H1 26050   0.417000   1.008000
26051         HT  3281  TIP3    H2 26051   0.417000   1.008000
26052         OT  3282  TIP3   OH2 26052  -0.834000  15.999400
26053         HT  3282  TIP3    H1 26053   0.417000   1.008000
26054         HT  3282  TIP3    H2 26054   0.417000   1.008000
26055         OT  3283  TIP3   OH2 26055  -0.834000  15.999400
26056         HT  3283  TIP3    H1 26056   0.417000   1.008000
26057         HT  3283  TIP3    H2 26057   0.417000   1.008000
26058         OT  3284  TIP3   OH2 26058  -0.834000  15.999400
26059         HT  3284  TIP3    H1 26059   0.417000   1.008000
26060         HT  3284  TIP3    H2 26060   0.417000   1.008000
26061         OT  3285  TIP3   OH2 26061  -0.834000  15.999400
26062         HT  3285  TIP3    H1 26062   0.417000   1.008000
26063         HT  3285  TIP3    H2 26063   0.417000   1.008000
26064         OT  3286  TIP3   OH2 26064  -0.834000  15.999400
26065         HT  3286  TIP3    H1 26065   0.417000   1.008000
26066         HT  3286  TIP3    H2 26066   0.417000   1.008000
26067         OT  3287  TIP3   OH2 26067  -0.834000  15.999400
26068         HT  3287  TIP3    H1 26068   0.417000   1.008000
26069         HT  3287  TIP3    H2 26069   0.417000   1.008000
26070         OT  3288  TIP3   OH2 26070  -0.834000  15.999400
26071         HT  3288  TIP3    H1 26071   0.417000   1.008000
26072         HT  3288  TIP3    H2 26072   0.417000   1.008000
26073         OT  3289  TIP3   OH2 26073  -0.834000  15.999400
26074         HT  3289  TIP3    H1 26074   0.417000   1.008000
26075         HT  3289  TIP3    H2 26075   0.417000   1.008000
26076         OT  3290  TIP3   OH2 26076  -0.834000  15.999400
26077         HT  3290  TIP3    H1 26077   0.417000   1.008000
26078         HT  3290  TIP3    H2 26078   0.417000   1.008000
26079         OT  3291  TIP3   OH2 26079  -0.834000  15.999400
26080         HT  3291  TIP3    H1 26080   0.417000   1.008000
26081         HT  3291  TIP3    H2 26081   0.417000   1.008000
26082         OT  3292  TIP3   OH2 26082  -0.834000  15.999400
26083         HT  3292  TIP3    H1 26083   0.417000   1.008000
26084         HT  3292  TIP3    H2 26084   0.417000   1.008000
26085         OT  3293  TIP3   OH2 26085  -0.834000  15.999400
26086         HT  3293  TIP3    H1 26086   0.417000   1.008000
26087         HT  3293  TIP3    H2 26087   0.417000   1.008000
26088         OT  3294  TIP3   OH2 26088  -0.834000  15.999400
26089         HT  3294  TIP3    H1 26089   0.417000   1.008000
26090         HT  3294  TIP3    H2 26090   0.417000   1.008000
26091         OT  3295  TIP3   OH2 26091  -0.834000  15.999400
26092         HT  3295  TIP3    H1 26092   0.417000   1.008000
26093         HT  3295  TIP3    H2 26093   0.417000   1.008000
26094         OT  3296  TIP3   OH2 26094  -0.834000  15.999400
26095         HT  3296  TIP3    H1 26095   0.417000   1.008000
26096         HT  3296  TIP3    H2 26096   0.417000   1.008000
26097         OT  3297  TIP3   OH2 26097  -0.834000  15.999400
26098         HT  3297  TIP3    H1 26098   0.417000   1.008000
26099         HT  3297  TIP3    H2 26099   0.417000   1.008000
26100         OT  3298  TIP3   OH2 26100  -0.834000  15.999400
26101         HT  3298  TIP3    H1 26101   0.417000   1.008000
26102         HT  3298  TIP3    H2 26102   0.417000   1.008000
26103         OT  3299  TIP3   OH2 26103  -0.834000  15.999400
26104         HT  3299  TIP3    H1 26104   0.417000   1.008000
26105         HT  3299  TIP3    H2 26105   0.417000   1.008000
26106         OT  3300  TIP3   OH2 26106  -0.834000  15.999400
26107         HT  3300  TIP3    H1 26107   0.417000   1.008000
26108         HT  3300  TIP3    H2 26108   0.417000   1.008000
26109         OT  3301  TIP3   OH2 26109  -0.834000  15.999400
26110         HT  3301  TIP3    H1 26110   0.417000   1.008000
26111         HT  3301  TIP3    H2 26111   0.417000   1.008000
26112         OT  3302  TIP3   OH2 26112  -0.834000  15.999400
26113         HT  3302  TIP3    H1 26113   0.417000   1.008000
26114         HT  3302  TIP3    H2 26114   0.417000   1.008000
26115         OT  3303  TIP3   OH2 26115  -0.834000  15.999400
26116         HT  3303  TIP3    H1 26116   0.417000   1.008000
26117         HT  3303  TIP3    H2 26117   0.417000   1.008000
26118         OT  3304  TIP3   OH2 26118  -0.834000  15.999400
26119         HT  3304  TIP3    H1 26119   0.417000   1.008000
26120         HT  3304  TIP3    H2 26120   0.417000   1.008000
26121         OT  3305  TIP3   OH2 26121  -0.834000  15.999400
26122         HT  3305  TIP3    H1 26122   0.417000   1.008000
26123         HT  3305  TIP3    H2 26123   0.417000   1.008000
26124         OT  3306  TIP3   OH2 26124  -0.834000  15.999400
26125         HT  3306  TIP3    H1 26125   0.417000   1.008000
26126         HT  3306  TIP3    H2 26126   0.417000   1.008000
26127         OT  3307  TIP3   OH2 26127  -0.834000  15.999400
26128         HT  3307  TIP3    H1 26128   0.417000   1.008000
26129         HT  3307  TIP3    H2 26129   0.417000   1.008000
26130         OT  3308  TIP3   OH2 26130  -0.834000  15.999400
26131         HT  3308  TIP3    H1 26131   0.417000   1.008000
26132         HT  3308  TIP3    H2 26132   0.417000   1.008000
26133         OT  3309  TIP3   OH2 26133  -0.834000  15.999400
26134         HT  3309  TIP3    H1 26134   0.417000   1.008000
26135         HT  3309  TIP3    H2 26135   0.417000   1.008000
26136         OT  3310  TIP3   OH2 26136  -0.834000  15.999400
26137         HT  3310  TIP3    H1 26137   0.417000   1.008000
26138         HT  3310  TIP3    H2 26138   0.417000   1.008000
26139         OT  3311  TIP3   OH2 26139  -0.834000  15.999400
26140         HT  3311  TIP3    H1 26140   0.417000   1.008000
26141         HT  3311  TIP3    H2 26141   0.417000   1.008000
26142         OT  3312  TIP3   OH2 26142  -0.834000  15.999400
26143         HT  3312  TIP3    H1 26143   0.417000   1.008000
26144         HT  3312  TIP3    H2 26144   0.417000   1.008000
26145         OT  3313  TIP3   OH2 26145  -0.834000  15.999400
26146         HT  3313  TIP3    H1 26146   0.417000   1.008000
26147         HT  3313  TIP3    H2 26147   0.417000   1.008000
26148         OT  3314  TIP3   OH2 26148  -0.834000  15.999400
26149         HT  3314  TIP3    H1 26149   0.417000   1.008000
26150         HT  3314  TIP3    H2 26150   0.417000   1.008000
26151         OT  3315  TIP3   OH2 26151  -0.834000  15.999400
26152         HT  3315  TIP3    H1 26152   0.417000   1.008000
26153         HT  3315  TIP3    H2 26153   0.417000   1.008000
26154         OT  3316  TIP3   OH2 26154  -0.834000  15.999400
26155         HT  3316  TIP3    H1 26155   0.417000   1.008000
26156         HT  3316  TIP3    H2 26156   0.417000   1.008000
26157         OT  3317  TIP3   OH2 26157  -0.834000  15.999400
26158         HT  3317  TIP3    H1 26158   0.417000   1.008000
26159         HT  3317  TIP3    H2 26159   0.417000   1.008000
26160         OT  3318  TIP3   OH2 26160  -0.834000  15.999400
26161         HT  3318  TIP3    H1 26161   0.417000   1.008000
26162         HT  3318  TIP3    H2 26162   0.417000   1.008000
26163         OT  3319  TIP3   OH2 26163  -0.834000  15.999400
26164         HT  3319  TIP3    H1 26164   0.417000   1.008000
26165         HT  3319  TIP3    H2 26165   0.417000   1.008000
26166         OT  3320  TIP3   OH2 26166  -0.834000  15.999400
26167         HT  3320  TIP3    H1 26167   0.417000   1.008000
26168         HT  3320  TIP3    H2 26168   0.417000   1.008000
26169         OT  3321  TIP3   OH2 26169  -0.834000  15.999400
26170         HT  3321  TIP3    H1 26170   0.417000   1.008000
26171         HT  3321  TIP3    H2 26171   0.417000   1.008000
26172         OT  3322  TIP3   OH2 26172  -0.834000  15.999400
26173         HT  3322  TIP3    H1 26173   0.417000   1.008000
26174         HT  3322  TIP3    H2 26174   0.417000   1.008000
26175         OT  3323  TIP3   OH2 26175  -0.834000  15.999400
26176         HT  3323  TIP3    H1 26176   0.417000   1.008000
26177         HT  3323  TIP3    H2 26177   0.417000   1.008000
26178         OT  3324  TIP3   OH2 26178  -0.834000  15.999400
26179         HT  3324  TIP3    H1 26179   0.417000   1.008000
26180         HT  3324  TIP3    H2 26180   0.417000   1.008000
26181         OT  3325  TIP3   OH2 26181  -0.834000  15.999400
26182         HT  3325  TIP3    H1 26182   0.417000   1.008000
26183         HT  3325  TIP3    H2 26183   0.417000   1.008000
26184         OT  3326  TIP3   OH2 26184  -0.834000  15.999400
26185         HT  3326  TIP3    H1 26185   0.417000   1.008000
26186         HT  3326  TIP3    H2 26186   0.417000   1.008000
26187         OT  3327  TIP3   OH2 26187  -0.834000  15.999400
26188         HT  3327  TIP3    H1 26188   0.417000   1.008000
26189         HT  3327  TIP3    H2 26189   0.417000   1.008000
26190         OT  3328  TIP3   OH2 26190  -0.834000  15.999400
26191         HT  3328  TIP3    H1 26191   0.417000   1.008000
26192         HT  3328  TIP3    H2 26192   0.417000   1.008000
26193         OT  3329  TIP3   OH2 26193  -0.834000  15.999400
26194         HT  3329  TIP3    H1 26194   0.417000   1.008000
26195         HT  3329  TIP3    H2 26195   0.417000   1.008000
26196         OT  3330  TIP3   OH2 26196  -0.834000  15.999400
26197         HT  3330  TIP3    H1 26197   0.417000   1.008000
26198         HT  3330  TIP3    H2 26198   0.417000   1.008000
26199         OT  3331  TIP3   OH2 26199  -0.834000  15.999400
26200         HT  3331  TIP3    H1 26200   0.417000   1.008000
26201         HT  3331  TIP3    H2 26201   0.417000   1.008000
26202         OT  3332  TIP3   OH2 26202  -0.834000  15.999400
26203         HT  3332  TIP3    H1 26203   0.417000   1.008000
26204         HT  3332  TIP3    H2 26204   0.417000   1.008000
26205         OT  3333  TIP3   OH2 26205  -0.834000  15.999400
26206         HT  3333  TIP3    H1 26206   0.417000   1.008000
26207         HT  3333  TIP3    H2 26207   0.417000   1.008000
26208         OT  3334  TIP3   OH2 26208  -0.834000  15.999400
26209         HT  3334  TIP3    H1 26209   0.417000   1.008000
26210         HT  3334  TIP3    H2 26210   0.417000   1.008000
26211         OT  3335  TIP3   OH2 26211  -0.834000  15.999400
26212         HT  3335  TIP3    H1 26212   0.417000   1.008000
26213         HT  3335  TIP3    H2 26213   0.417000   1.008000
26214         OT  3336  TIP3   OH2 26214  -0.834000  15.999400
26215         HT  3336  TIP3    H1 26215   0.417000   1.008000
26216         HT  3336  TIP3    H2 26216   0.417000   1.008000
26217         OT  3337  TIP3   OH2 26217  -0.834000  15.999400
26218         HT  3337  TIP3    H1 26218   0.417000   1.008000
26219         HT  3337  TIP3    H2 26219   0.417000   1.008000
26220         OT  3338  TIP3   OH2 26220  -0.834000  15.999400
26221         HT  3338  TIP3    H1 26221   0.417000   1.008000
26222         HT  3338  TIP3    H2 26222   0.417000   1.008000
26223         OT  3339  TIP3   OH2 26223  -0.834000  15.999400
26224         HT  3339  TIP3    H1 26224   0.417000   1.008000
26225         HT  3339  TIP3    H2 26225   0.417000   1.008000
26226         OT  3340  TIP3   OH2 26226  -0.834000  15.999400
26227         HT  3340  TIP3    H1 26227   0.417000   1.008000
26228         HT  3340  TIP3    H2 26228   0.417000   1.008000
26229         OT  3341  TIP3   OH2 26229  -0.834000  15.999400
26230         HT  3341  TIP3    H1 26230   0.417000   1.008000
26231         HT  3341  TIP3    H2 26231   0.417000   1.008000
26232         OT  3342  TIP3   OH2 26232  -0.834000  15.999400
26233         HT  3342  TIP3    H1 26233   0.417000   1.008000
26234         HT  3342  TIP3    H2 26234   0.417000   1.008000
26235         OT  3343  TIP3   OH2 26235  -0.834000  15.999400
26236         HT  3343  TIP3    H1 26236   0.417000   1.008000
26237         HT  3343  TIP3    H2 26237   0.417000   1.008000
26238         OT  3344  TIP3   OH2 26238  -0.834000  15.999400
26239         HT  3344  TIP3    H1 26239   0.417000   1.008000
26240         HT  3344  TIP3    H2 26240   0.417000   1.008000
26241         OT  3345  TIP3   OH2 26241  -0.834000  15.999400
26242         HT  3345  TIP3    H1 26242   0.417000   1.008000
26243         HT  3345  TIP3    H2 26243   0.417000   1.008000
26244         OT  3346  TIP3   OH2 26244  -0.834000  15.999400
26245         HT  3346  TIP3    H1 26245   0.417000   1.008000
26246         HT  3346  TIP3    H2 26246   0.417000   1.008000
26247         OT  3347  TIP3   OH2 26247  -0.834000  15.999400
26248         HT  3347  TIP3    H1 26248   0.417000   1.008000
26249         HT  3347  TIP3    H2 26249   0.417000   1.008000
26250         OT  3348  TIP3   OH2 26250  -0.834000  15.999400
26251         HT  3348  TIP3    H1 26251   0.417000   1.008000
26252         HT  3348  TIP3    H2 26252   0.417000   1.008000
26253         OT  3349  TIP3   OH2 26253  -0.834000  15.999400
26254         HT  3349  TIP3    H1 26254   0.417000   1.008000
26255         HT  3349  TIP3    H2 26255   0.417000   1.008000
26256         OT  3350  TIP3   OH2 26256  -0.834000  15.999400
26257         HT  3350  TIP3    H1 26257   0.417000   1.008000
26258         HT  3350  TIP3    H2 26258   0.417000   1.008000
26259         OT  3351  TIP3   OH2 26259  -0.834000  15.999400
26260         HT  3351  TIP3    H1 26260   0.417000   1.008000
26261         HT  3351  TIP3    H2 26261   0.417000   1.008000
26262         OT  3352  TIP3   OH2 26262  -0.834000  15.999400
26263         HT  3352  TIP3    H1 26263   0.417000   1.008000
26264         HT  3352  TIP3    H2 26264   0.417000   1.008000
26265         OT  3353  TIP3   OH2 26265  -0.834000  15.999400
26266         HT  3353  TIP3    H1 26266   0.417000   1.008000
26267         HT  3353  TIP3    H2 26267   0.417000   1.008000
26268         OT  3354  TIP3   OH2 26268  -0.834000  15.999400
26269         HT  3354  TIP3    H1 26269   0.417000   1.008000
26270         HT  3354  TIP3    H2 26270   0.417000   1.008000
26271         OT  3355  TIP3   OH2 26271  -0.834000  15.999400
26272         HT  3355  TIP3    H1 26272   0.417000   1.008000
26273         HT  3355  TIP3    H2 26273   0.417000   1.008000
26274         OT  3356  TIP3   OH2 26274  -0.834000  15.999400
26275         HT  3356  TIP3    H1 26275   0.417000   1.008000
26276         HT  3356  TIP3    H2 26276   0.417000   1.008000
26277         OT  3357  TIP3   OH2 26277  -0.834000  15.999400
26278         HT  3357  TIP3    H1 26278   0.417000   1.008000
26279         HT  3357  TIP3    H2 26279   0.417000   1.008000
26280         OT  3358  TIP3   OH2 26280  -0.834000  15.999400
26281         HT  3358  TIP3    H1 26281   0.417000   1.008000
26282         HT  3358  TIP3    H2 26282   0.417000   1.008000
26283         OT  3359  TIP3   OH2 26283  -0.834000  15.999400
26284         HT  3359  TIP3    H1 26284   0.417000   1.008000
26285         HT  3359  TIP3    H2 26285   0.417000   1.008000
26286         OT  3360  TIP3   OH2 26286  -0.834000  15.999400
26287         HT  3360  TIP3    H1 26287   0.417000   1.008000
26288         HT  3360  TIP3    H2 26288   0.417000   1.008000
26289         OT  3361  TIP3   OH2 26289  -0.834000  15.999400
26290         HT  3361  TIP3    H1 26290   0.417000   1.008000
26291         HT  3361  TIP3    H2 26291   0.417000   1.008000
26292         OT  3362  TIP3   OH2 26292  -0.834000  15.999400
26293         HT  3362  TIP3    H1 26293   0.417000   1.008000
26294         HT  3362  TIP3    H2 26294   0.417000   1.008000
26295         OT  3363  TIP3   OH2 26295  -0.834000  15.999400
26296         HT  3363  TIP3    H1 26296   0.417000   1.008000
26297         HT  3363  TIP3    H2 26297   0.417000   1.008000
26298         OT  3364  TIP3   OH2 26298  -0.834000  15.999400
26299         HT  3364  TIP3    H1 26299   0.417000   1.008000
26300         HT  3364  TIP3    H2 26300   0.417000   1.008000
26301         OT  3365  TIP3   OH2 26301  -0.834000  15.999400
26302         HT  3365  TIP3    H1 26302   0.417000   1.008000
26303         HT  3365  TIP3    H2 26303   0.417000   1.008000
26304         OT  3366  TIP3   OH2 26304  -0.834000  15.999400
26305         HT  3366  TIP3    H1 26305   0.417000   1.008000
26306         HT  3366  TIP3    H2 26306   0.417000   1.008000
26307         OT  3367  TIP3   OH2 26307  -0.834000  15.999400
26308         HT  3367  TIP3    H1 26308   0.417000   1.008000
26309         HT  3367  TIP3    H2 26309   0.417000   1.008000
26310         OT  3368  TIP3   OH2 26310  -0.834000  15.999400
26311         HT  3368  TIP3    H1 26311   0.417000   1.008000
26312         HT  3368  TIP3    H2 26312   0.417000   1.008000
26313         OT  3369  TIP3   OH2 26313  -0.834000  15.999400
26314         HT  3369  TIP3    H1 26314   0.417000   1.008000
26315         HT  3369  TIP3    H2 26315   0.417000   1.008000
26316         OT  3370  TIP3   OH2 26316  -0.834000  15.999400
26317         HT  3370  TIP3    H1 26317   0.417000   1.008000
26318         HT  3370  TIP3    H2 26318   0.417000   1.008000
26319         OT  3371  TIP3   OH2 26319  -0.834000  15.999400
26320         HT  3371  TIP3    H1 26320   0.417000   1.008000
26321         HT  3371  TIP3    H2 26321   0.417000   1.008000
26322         OT  3372  TIP3   OH2 26322  -0.834000  15.999400
26323         HT  3372  TIP3    H1 26323   0.417000   1.008000
26324         HT  3372  TIP3    H2 26324   0.417000   1.008000
26325         OT  3373  TIP3   OH2 26325  -0.834000  15.999400
26326         HT  3373  TIP3    H1 26326   0.417000   1.008000
26327         HT  3373  TIP3    H2 26327   0.417000   1.008000
26328         OT  3374  TIP3   OH2 26328  -0.834000  15.999400
26329         HT  3374  TIP3    H1 26329   0.417000   1.008000
26330         HT  3374  TIP3    H2 26330   0.417000   1.008000
26331         OT  3375  TIP3   OH2 26331  -0.834000  15.999400
26332         HT  3375  TIP3    H1 26332   0.417000   1.008000
26333         HT  3375  TIP3    H2 26333   0.417000   1.008000
26334         OT  3376  TIP3   OH2 26334  -0.834000  15.999400
26335         HT  3376  TIP3    H1 26335   0.417000   1.008000
26336         HT  3376  TIP3    H2 26336   0.417000   1.008000
26337         OT  3377  TIP3   OH2 26337  -0.834000  15.999400
26338         HT  3377  TIP3    H1 26338   0.417000   1.008000
26339         HT  3377  TIP3    H2 26339   0.417000   1.008000
26340         OT  3378  TIP3   OH2 26340  -0.834000  15.999400
26341         HT  3378  TIP3    H1 26341   0.417000   1.008000
26342         HT  3378  TIP3    H2 26342   0.417000   1.008000
26343         OT  3379  TIP3   OH2 26343  -0.834000  15.999400
26344         HT  3379  TIP3    H1 26344   0.417000   1.008000
26345         HT  3379  TIP3    H2 26345   0.417000   1.008000
26346         OT  3380  TIP3   OH2 26346  -0.834000  15.999400
26347         HT  3380  TIP3    H1 26347   0.417000   1.008000
26348         HT  3380  TIP3    H2 26348   0.417000   1.008000
26349         OT  3381  TIP3   OH2 26349  -0.834000  15.999400
26350         HT  3381  TIP3    H1 26350   0.417000   1.008000
26351         HT  3381  TIP3    H2 26351   0.417000   1.008000
26352         OT  3382  TIP3   OH2 26352  -0.834000  15.999400
26353         HT  3382  TIP3    H1 26353   0.417000   1.008000
26354         HT  3382  TIP3    H2 26354   0.417000   1.008000
26355         OT  3383  TIP3   OH2 26355  -0.834000  15.999400
26356         HT  3383  TIP3    H1 26356   0.417000   1.008000
26357         HT  3383  TIP3    H2 26357   0.417000   1.008000
26358         OT  3384  TIP3   OH2 26358  -0.834000  15.999400
26359         HT  3384  TIP3    H1 26359   0.417000   1.008000
26360         HT  3384  TIP3    H2 26360   0.417000   1.008000
26361         OT  3385  TIP3   OH2 26361  -0.834000  15.999400
26362         HT  3385  TIP3    H1 26362   0.417000   1.008000
26363         HT  3385  TIP3    H2 26363   0.417000   1.008000
26364         OT  3386  TIP3   OH2 26364  -0.834000  15.999400
26365         HT  3386  TIP3    H1 26365   0.417000   1.008000
26366         HT  3386  TIP3    H2 26366   0.417000   1.008000
26367         OT  3387  TIP3   OH2 26367  -0.834000  15.999400
26368         HT  3387  TIP3    H1 26368   0.417000   1.008000
26369         HT  3387  TIP3    H2 26369   0.417000   1.008000
26370         OT  3388  TIP3   OH2 26370  -0.834000  15.999400
26371         HT  3388  TIP3    H1 26371   0.417000   1.008000
26372         HT  3388  TIP3    H2 26372   0.417000   1.008000
26373         OT  3389  TIP3   OH2 26373  -0.834000  15.999400
26374         HT  3389  TIP3    H1 26374   0.417000   1.008000
26375         HT  3389  TIP3    H2 26375   0.417000   1.008000
26376         OT  3390  TIP3   OH2 26376  -0.834000  15.999400
26377         HT  3390  TIP3    H1 26377   0.417000   1.008000
26378         HT  3390  TIP3    H2 26378   0.417000   1.008000
26379         OT  3391  TIP3   OH2 26379  -0.834000  15.999400
26380         HT  3391  TIP3    H1 26380   0.417000   1.008000
26381         HT  3391  TIP3    H2 26381   0.417000   1.008000
26382         OT  3392  TIP3   OH2 26382  -0.834000  15.999400
26383         HT  3392  TIP3    H1 26383   0.417000   1.008000
26384         HT  3392  TIP3    H2 26384   0.417000   1.008000
26385         OT  3393  TIP3   OH2 26385  -0.834000  15.999400
26386         HT  3393  TIP3    H1 26386   0.417000   1.008000
26387         HT  3393  TIP3    H2 26387   0.417000   1.008000
26388         OT  3394  TIP3   OH2 26388  -0.834000  15.999400
26389         HT  3394  TIP3    H1 26389   0.417000   1.008000
26390         HT  3394  TIP3    H2 26390   0.417000   1.008000
26391         OT  3395  TIP3   OH2 26391  -0.834000  15.999400
26392         HT  3395  TIP3    H1 26392   0.417000   1.008000
26393         HT  3395  TIP3    H2 26393   0.417000   1.008000
26394         OT  3396  TIP3   OH2 26394  -0.834000  15.999400
26395         HT  3396  TIP3    H1 26395   0.417000   1.008000
26396         HT  3396  TIP3    H2 26396   0.417000   1.008000
26397         OT  3397  TIP3   OH2 26397  -0.834000  15.999400
26398         HT  3397  TIP3    H1 26398   0.417000   1.008000
26399         HT  3397  TIP3    H2 26399   0.417000   1.008000
26400         OT  3398  TIP3   OH2 26400  -0.834000  15.999400
26401         HT  3398  TIP3    H1 26401   0.417000   1.008000
26402         HT  3398  TIP3    H2 26402   0.417000   1.008000
26403         OT  3399  TIP3   OH2 26403  -0.834000  15.999400
26404         HT  3399  TIP3    H1 26404   0.417000   1.008000
26405         HT  3399  TIP3    H2 26405   0.417000   1.008000
26406         OT  3400  TIP3   OH2 26406  -0.834000  15.999400
26407         HT  3400  TIP3    H1 26407   0.417000   1.008000
26408         HT  3400  TIP3    H2 26408   0.417000   1.008000
26409         OT  3401  TIP3   OH2 26409  -0.834000  15.999400
26410         HT  3401  TIP3    H1 26410   0.417000   1.008000
26411         HT  3401  TIP3    H2 26411   0.417000   1.008000
26412         OT  3402  TIP3   OH2 26412  -0.834000  15.999400
26413         HT  3402  TIP3    H1 26413   0.417000   1.008000
26414         HT  3402  TIP3    H2 26414   0.417000   1.008000
26415         OT  3403  TIP3   OH2 26415  -0.834000  15.999400
26416         HT  3403  TIP3    H1 26416   0.417000   1.008000
26417         HT  3403  TIP3    H2 26417   0.417000   1.008000
26418         OT  3404  TIP3   OH2 26418  -0.834000  15.999400
26419         HT  3404  TIP3    H1 26419   0.417000   1.008000
26420         HT  3404  TIP3    H2 26420   0.417000   1.008000
26421         OT  3405  TIP3   OH2 26421  -0.834000  15.999400
26422         HT  3405  TIP3    H1 26422   0.417000   1.008000
26423         HT  3405  TIP3    H2 26423   0.417000   1.008000
26424         OT  3406  TIP3   OH2 26424  -0.834000  15.999400
26425         HT  3406  TIP3    H1 26425   0.417000   1.008000
26426         HT  3406  TIP3    H2 26426   0.417000   1.008000
26427         OT  3407  TIP3   OH2 26427  -0.834000  15.999400
26428         HT  3407  TIP3    H1 26428   0.417000   1.008000
26429         HT  3407  TIP3    H2 26429   0.417000   1.008000
26430         OT  3408  TIP3   OH2 26430  -0.834000  15.999400
26431         HT  3408  TIP3    H1 26431   0.417000   1.008000
26432         HT  3408  TIP3    H2 26432   0.417000   1.008000
26433         OT  3409  TIP3   OH2 26433  -0.834000  15.999400
26434         HT  3409  TIP3    H1 26434   0.417000   1.008000
26435         HT  3409  TIP3    H2 26435   0.417000   1.008000
26436         OT  3410  TIP3   OH2 26436  -0.834000  15.999400
26437         HT  3410  TIP3    H1 26437   0.417000   1.008000
26438         HT  3410  TIP3    H2 26438   0.417000   1.008000
26439         OT  3411  TIP3   OH2 26439  -0.834000  15.999400
26440         HT  3411  TIP3    H1 26440   0.417000   1.008000
26441         HT  3411  TIP3    H2 26441   0.417000   1.008000
26442         OT  3412  TIP3   OH2 26442  -0.834000  15.999400
26443         HT  3412  TIP3    H1 26443   0.417000   1.008000
26444         HT  3412  TIP3    H2 26444   0.417000   1.008000
26445         OT  3413  TIP3   OH2 26445  -0.834000  15.999400
26446         HT  3413  TIP3    H1 26446   0.417000   1.008000
26447         HT  3413  TIP3    H2 26447   0.417000   1.008000
26448         OT  3414  TIP3   OH2 26448  -0.834000  15.999400
26449         HT  3414  TIP3    H1 26449   0.417000   1.008000
26450         HT  3414  TIP3    H2 26450   0.417000   1.008000
26451         OT  3415  TIP3   OH2 26451  -0.834000  15.999400
26452         HT  3415  TIP3    H1 26452   0.417000   1.008000
26453         HT  3415  TIP3    H2 26453   0.417000   1.008000
26454         OT  3416  TIP3   OH2 26454  -0.834000  15.999400
26455         HT  3416  TIP3    H1 26455   0.417000   1.008000
26456         HT  3416  TIP3    H2 26456   0.417000   1.008000
26457         OT  3417  TIP3   OH2 26457  -0.834000  15.999400
26458         HT  3417  TIP3    H1 26458   0.417000   1.008000
26459         HT  3417  TIP3    H2 26459   0.417000   1.008000
26460         OT  3418  TIP3   OH2 26460  -0.834000  15.999400
26461         HT  3418  TIP3    H1 26461   0.417000   1.008000
26462         HT  3418  TIP3    H2 26462   0.417000   1.008000
26463         OT  3419  TIP3   OH2 26463  -0.834000  15.999400
26464         HT  3419  TIP3    H1 26464   0.417000   1.008000
26465         HT  3419  TIP3    H2 26465   0.417000   1.008000
26466         OT  3420  TIP3   OH2 26466  -0.834000  15.999400
26467         HT  3420  TIP3    H1 26467   0.417000   1.008000
26468         HT  3420  TIP3    H2 26468   0.417000   1.008000
26469         OT  3421  TIP3   OH2 26469  -0.834000  15.999400
26470         HT  3421  TIP3    H1 26470   0.417000   1.008000
26471         HT  3421  TIP3    H2 26471   0.417000   1.008000
26472         OT  3422  TIP3   OH2 26472  -0.834000  15.999400
26473         HT  3422  TIP3    H1 26473   0.417000   1.008000
26474         HT  3422  TIP3    H2 26474   0.417000   1.008000
26475         OT  3423  TIP3   OH2 26475  -0.834000  15.999400
26476         HT  3423  TIP3    H1 26476   0.417000   1.008000
26477         HT  3423  TIP3    H2 26477   0.417000   1.008000
26478         OT  3424  TIP3   OH2 26478  -0.834000  15.999400
26479         HT  3424  TIP3    H1 26479   0.417000   1.008000
26480         HT  3424  TIP3    H2 26480   0.417000   1.008000
26481         OT  3425  TIP3   OH2 26481  -0.834000  15.999400
26482         HT  3425  TIP3    H1 26482   0.417000   1.008000
26483         HT  3425  TIP3    H2 26483   0.417000   1.008000
26484         OT  3426  TIP3   OH2 26484  -0.834000  15.999400
26485         HT  3426  TIP3    H1 26485   0.417000   1.008000
26486         HT  3426  TIP3    H2 26486   0.417000   1.008000
26487         OT  3427  TIP3   OH2 26487  -0.834000  15.999400
26488         HT  3427  TIP3    H1 26488   0.417000   1.008000
26489         HT  3427  TIP3    H2 26489   0.417000   1.008000
26490         OT  3428  TIP3   OH2 26490  -0.834000  15.999400
26491         HT  3428  TIP3    H1 26491   0.417000   1.008000
26492         HT  3428  TIP3    H2 26492   0.417000   1.008000
26493         OT  3429  TIP3   OH2 26493  -0.834000  15.999400
26494         HT  3429  TIP3    H1 26494   0.417000   1.008000
26495         HT  3429  TIP3    H2 26495   0.417000   1.008000
26496         OT  3430  TIP3   OH2 26496  -0.834000  15.999400
26497         HT  3430  TIP3    H1 26497   0.417000   1.008000
26498         HT  3430  TIP3    H2 26498   0.417000   1.008000
26499         OT  3431  TIP3   OH2 26499  -0.834000  15.999400
26500         HT  3431  TIP3    H1 26500   0.417000   1.008000
26501         HT  3431  TIP3    H2 26501   0.417000   1.008000
26502         OT  3432  TIP3   OH2 26502  -0.834000  15.999400
26503         HT  3432  TIP3    H1 26503   0.417000   1.008000
26504         HT  3432  TIP3    H2 26504   0.417000   1.008000
26505         OT  3433  TIP3   OH2 26505  -0.834000  15.999400
26506         HT  3433  TIP3    H1 26506   0.417000   1.008000
26507         HT  3433  TIP3    H2 26507   0.417000   1.008000
26508         OT  3434  TIP3   OH2 26508  -0.834000  15.999400
26509         HT  3434  TIP3    H1 26509   0.417000   1.008000
26510         HT  3434  TIP3    H2 26510   0.417000   1.008000
26511         OT  3435  TIP3   OH2 26511  -0.834000  15.999400
26512         HT  3435  TIP3    H1 26512   0.417000   1.008000
26513         HT  3435  TIP3    H2 26513   0.417000   1.008000
26514         OT  3436  TIP3   OH2 26514  -0.834000  15.999400
26515         HT  3436  TIP3    H1 26515   0.417000   1.008000
26516         HT  3436  TIP3    H2 26516   0.417000   1.008000
26517         OT  3437  TIP3   OH2 26517  -0.834000  15.999400
26518         HT  3437  TIP3    H1 26518   0.417000   1.008000
26519         HT  3437  TIP3    H2 26519   0.417000   1.008000
26520         OT  3438  TIP3   OH2 26520  -0.834000  15.999400
26521         HT  3438  TIP3    H1 26521   0.417000   1.008000
26522         HT  3438  TIP3    H2 26522   0.417000   1.008000
26523         OT  3439  TIP3   OH2 26523  -0.834000  15.999400
26524         HT  3439  TIP3    H1 26524   0.417000   1.008000
26525         HT  3439  TIP3    H2 26525   0.417000   1.008000
26526         OT  3440  TIP3   OH2 26526  -0.834000  15.999400
26527         HT  3440  TIP3    H1 26527   0.417000   1.008000
26528         HT  3440  TIP3    H2 26528   0.417000   1.008000
26529         OT  3441  TIP3   OH2 26529  -0.834000  15.999400
26530         HT  3441  TIP3    H1 26530   0.417000   1.008000
26531         HT  3441  TIP3    H2 26531   0.417000   1.008000
26532         OT  3442  TIP3   OH2 26532  -0.834000  15.999400
26533         HT  3442  TIP3    H1 26533   0.417000   1.008000
26534         HT  3442  TIP3    H2 26534   0.417000   1.008000
26535         OT  3443  TIP3   OH2 26535  -0.834000  15.999400
26536         HT  3443  TIP3    H1 26536   0.417000   1.008000
26537         HT  3443  TIP3    H2 26537   0.417000   1.008000
26538         OT  3444  TIP3   OH2 26538  -0.834000  15.999400
26539         HT  3444  TIP3    H1 26539   0.417000   1.008000
26540         HT  3444  TIP3    H2 26540   0.417000   1.008000
26541         OT  3445  TIP3   OH2 26541  -0.834000  15.999400
26542         HT  3445  TIP3    H1 26542   0.417000   1.008000
26543         HT  3445  TIP3    H2 26543   0.417000   1.008000
26544         OT  3446  TIP3   OH2 26544  -0.834000  15.999400
26545         HT  3446  TIP3    H1 26545   0.417000   1.008000
26546         HT  3446  TIP3    H2 26546   0.417000   1.008000
26547         OT  3447  TIP3   OH2 26547  -0.834000  15.999400
26548         HT  3447  TIP3    H1 26548   0.417000   1.008000
26549         HT  3447  TIP3    H2 26549   0.417000   1.008000
26550         OT  3448  TIP3   OH2 26550  -0.834000  15.999400
26551         HT  3448  TIP3    H1 26551   0.417000   1.008000
26552         HT  3448  TIP3    H2 26552   0.417000   1.008000
26553         OT  3449  TIP3   OH2 26553  -0.834000  15.999400
26554         HT  3449  TIP3    H1 26554   0.417000   1.008000
26555         HT  3449  TIP3    H2 26555   0.417000   1.008000
26556         OT  3450  TIP3   OH2 26556  -0.834000  15.999400
26557         HT  3450  TIP3    H1 26557   0.417000   1.008000
26558         HT  3450  TIP3    H2 26558   0.417000   1.008000
26559         OT  3451  TIP3   OH2 26559  -0.834000  15.999400
26560         HT  3451  TIP3    H1 26560   0.417000   1.008000
26561         HT  3451  TIP3    H2 26561   0.417000   1.008000
26562         OT  3452  TIP3   OH2 26562  -0.834000  15.999400
26563         HT  3452  TIP3    H1 26563   0.417000   1.008000
26564         HT  3452  TIP3    H2 26564   0.417000   1.008000
26565         OT  3453  TIP3   OH2 26565  -0.834000  15.999400
26566         HT  3453  TIP3    H1 26566   0.417000   1.008000
26567         HT  3453  TIP3    H2 26567   0.417000   1.008000
26568         OT  3454  TIP3   OH2 26568  -0.834000  15.999400
26569         HT  3454  TIP3    H1 26569   0.417000   1.008000
26570         HT  3454  TIP3    H2 26570   0.417000   1.008000
26571         OT  3455  TIP3   OH2 26571  -0.834000  15.999400
26572         HT  3455  TIP3    H1 26572   0.417000   1.008000
26573         HT  3455  TIP3    H2 26573   0.417000   1.008000
26574         OT  3456  TIP3   OH2 26574  -0.834000  15.999400
26575         HT  3456  TIP3    H1 26575   0.417000   1.008000
26576         HT  3456  TIP3    H2 26576   0.417000   1.008000
26577         OT  3457  TIP3   OH2 26577  -0.834000  15.999400
26578         HT  3457  TIP3    H1 26578   0.417000   1.008000
26579         HT  3457  TIP3    H2 26579   0.417000   1.008000
26580         OT  3458  TIP3   OH2 26580  -0.834000  15.999400
26581         HT  3458  TIP3    H1 26581   0.417000   1.008000
26582         HT  3458  TIP3    H2 26582   0.417000   1.008000
26583         OT  3459  TIP3   OH2 26583  -0.834000  15.999400
26584         HT  3459  TIP3    H1 26584   0.417000   1.008000
26585         HT  3459  TIP3    H2 26585   0.417000   1.008000
26586         OT  3460  TIP3   OH2 26586  -0.834000  15.999400
26587         HT  3460  TIP3    H1 26587   0.417000   1.008000
26588         HT  3460  TIP3    H2 26588   0.417000   1.008000
26589         OT  3461  TIP3   OH2 26589  -0.834000  15.999400
26590         HT  3461  TIP3    H1 26590   0.417000   1.008000
26591         HT  3461  TIP3    H2 26591   0.417000   1.008000
26592         OT  3462  TIP3   OH2 26592  -0.834000  15.999400
26593         HT  3462  TIP3    H1 26593   0.417000   1.008000
26594         HT  3462  TIP3    H2 26594   0.417000   1.008000
26595         OT  3463  TIP3   OH2 26595  -0.834000  15.999400
26596         HT  3463  TIP3    H1 26596   0.417000   1.008000
26597         HT  3463  TIP3    H2 26597   0.417000   1.008000
26598         OT  3464  TIP3   OH2 26598  -0.834000  15.999400
26599         HT  3464  TIP3    H1 26599   0.417000   1.008000
26600         HT  3464  TIP3    H2 26600   0.417000   1.008000
26601         OT  3465  TIP3   OH2 26601  -0.834000  15.999400
26602         HT  3465  TIP3    H1 26602   0.417000   1.008000
26603         HT  3465  TIP3    H2 26603   0.417000   1.008000
26604         OT  3466  TIP3   OH2 26604  -0.834000  15.999400
26605         HT  3466  TIP3    H1 26605   0.417000   1.008000
26606         HT  3466  TIP3    H2 26606   0.417000   1.008000
26607         OT  3467  TIP3   OH2 26607  -0.834000  15.999400
26608         HT  3467  TIP3    H1 26608   0.417000   1.008000
26609         HT  3467  TIP3    H2 26609   0.417000   1.008000
26610         OT  3468  TIP3   OH2 26610  -0.834000  15.999400
26611         HT  3468  TIP3    H1 26611   0.417000   1.008000
26612         HT  3468  TIP3    H2 26612   0.417000   1.008000
26613         OT  3469  TIP3   OH2 26613  -0.834000  15.999400
26614         HT  3469  TIP3    H1 26614   0.417000   1.008000
26615         HT  3469  TIP3    H2 26615   0.417000   1.008000
26616         OT  3470  TIP3   OH2 26616  -0.834000  15.999400
26617         HT  3470  TIP3    H1 26617   0.417000   1.008000
26618         HT  3470  TIP3    H2 26618   0.417000   1.008000
26619         OT  3471  TIP3   OH2 26619  -0.834000  15.999400
26620         HT  3471  TIP3    H1 26620   0.417000   1.008000
26621         HT  3471  TIP3    H2 26621   0.417000   1.008000
26622         OT  3472  TIP3   OH2 26622  -0.834000  15.999400
26623         HT  3472  TIP3    H1 26623   0.417000   1.008000
26624         HT  3472  TIP3    H2 26624   0.417000   1.008000
26625         OT  3473  TIP3   OH2 26625  -0.834000  15.999400
26626         HT  3473  TIP3    H1 26626   0.417000   1.008000
26627         HT  3473  TIP3    H2 26627   0.417000   1.008000
26628         OT  3474  TIP3   OH2 26628  -0.834000  15.999400
26629         HT  3474  TIP3    H1 26629   0.417000   1.008000
26630         HT  3474  TIP3    H2 26630   0.417000   1.008000
26631         OT  3475  TIP3   OH2 26631  -0.834000  15.999400
26632         HT  3475  TIP3    H1 26632   0.417000   1.008000
26633         HT  3475  TIP3    H2 26633   0.417000   1.008000
26634         OT  3476  TIP3   OH2 26634  -0.834000  15.999400
26635         HT  3476  TIP3    H1 26635   0.417000   1.008000
26636         HT  3476  TIP3    H2 26636   0.417000   1.008000
26637         OT  3477  TIP3   OH2 26637  -0.834000  15.999400
26638         HT  3477  TIP3    H1 26638   0.417000   1.008000
26639         HT  3477  TIP3    H2 26639   0.417000   1.008000
26640         OT  3478  TIP3   OH2 26640  -0.834000  15.999400
26641         HT  3478  TIP3    H1 26641   0.417000   1.008000
26642         HT  3478  TIP3    H2 26642   0.417000   1.008000
26643         OT  3479  TIP3   OH2 26643  -0.834000  15.999400
26644         HT  3479  TIP3    H1 26644   0.417000   1.008000
26645         HT  3479  TIP3    H2 26645   0.417000   1.008000
26646         OT  3480  TIP3   OH2 26646  -0.834000  15.999400
26647         HT  3480  TIP3    H1 26647   0.417000   1.008000
26648         HT  3480  TIP3    H2 26648   0.417000   1.008000
26649         OT  3481  TIP3   OH2 26649  -0.834000  15.999400
26650         HT  3481  TIP3    H1 26650   0.417000   1.008000
26651         HT  3481  TIP3    H2 26651   0.417000   1.008000
26652         OT  3482  TIP3   OH2 26652  -0.834000  15.999400
26653         HT  3482  TIP3    H1 26653   0.417000   1.008000
26654         HT  3482  TIP3    H2 26654   0.417000   1.008000
26655         OT  3483  TIP3   OH2 26655  -0.834000  15.999400
26656         HT  3483  TIP3    H1 26656   0.417000   1.008000
26657         HT  3483  TIP3    H2 26657   0.417000   1.008000
26658         OT  3484  TIP3   OH2 26658  -0.834000  15.999400
26659         HT  3484  TIP3    H1 26659   0.417000   1.008000
26660         HT  3484  TIP3    H2 26660   0.417000   1.008000
26661         OT  3485  TIP3   OH2 26661  -0.834000  15.999400
26662         HT  3485  TIP3    H1 26662   0.417000   1.008000
26663         HT  3485  TIP3    H2 26663   0.417000   1.008000
26664         OT  3486  TIP3   OH2 26664  -0.834000  15.999400
26665         HT  3486  TIP3    H1 26665   0.417000   1.008000
26666         HT  3486  TIP3    H2 26666   0.417000   1.008000
26667         OT  3487  TIP3   OH2 26667  -0.834000  15.999400
26668         HT  3487  TIP3    H1 26668   0.417000   1.008000
26669         HT  3487  TIP3    H2 26669   0.417000   1.008000
26670         OT  3488  TIP3   OH2 26670  -0.834000  15.999400
26671         HT  3488  TIP3    H1 26671   0.417000   1.008000
26672         HT  3488  TIP3    H2 26672   0.417000   1.008000
26673         OT  3489  TIP3   OH2 26673  -0.834000  15.999400
26674         HT  3489  TIP3    H1 26674   0.417000   1.008000
26675         HT  3489  TIP3    H2 26675   0.417000   1.008000
26676         OT  3490  TIP3   OH2 26676  -0.834000  15.999400
26677         HT  3490  TIP3    H1 26677   0.417000   1.008000
26678         HT  3490  TIP3    H2 26678   0.417000   1.008000
26679         OT  3491  TIP3   OH2 26679  -0.834000  15.999400
26680         HT  3491  TIP3    H1 26680   0.417000   1.008000
26681         HT  3491  TIP3    H2 26681   0.417000   1.008000
26682         OT  3492  TIP3   OH2 26682  -0.834000  15.999400
26683         HT  3492  TIP3    H1 26683   0.417000   1.008000
26684         HT  3492  TIP3    H2 26684   0.417000   1.008000
26685         OT  3493  TIP3   OH2 26685  -0.834000  15.999400
26686         HT  3493  TIP3    H1 26686   0.417000   1.008000
26687         HT  3493  TIP3    H2 26687   0.417000   1.008000
26688         OT  3494  TIP3   OH2 26688  -0.834000  15.999400
26689         HT  3494  TIP3    H1 26689   0.417000   1.008000
26690         HT  3494  TIP3    H2 26690   0.417000   1.008000
26691         OT  3495  TIP3   OH2 26691  -0.834000  15.999400
26692         HT  3495  TIP3    H1 26692   0.417000   1.008000
26693         HT  3495  TIP3    H2 26693   0.417000   1.008000
26694         OT  3496  TIP3   OH2 26694  -0.834000  15.999400
26695         HT  3496  TIP3    H1 26695   0.417000   1.008000
26696         HT  3496  TIP3    H2 26696   0.417000   1.008000
26697         OT  3497  TIP3   OH2 26697  -0.834000  15.999400
26698         HT  3497  TIP3    H1 26698   0.417000   1.008000
26699         HT  3497  TIP3    H2 26699   0.417000   1.008000
26700         OT  3498  TIP3   OH2 26700  -0.834000  15.999400
26701         HT  3498  TIP3    H1 26701   0.417000   1.008000
26702         HT  3498  TIP3    H2 26702   0.417000   1.008000
26703         OT  3499  TIP3   OH2 26703  -0.834000  15.999400
26704         HT  3499  TIP3    H1 26704   0.417000   1.008000
26705         HT  3499  TIP3    H2 26705   0.417000   1.008000
26706         OT  3500  TIP3   OH2 26706  -0.834000  15.999400
26707         HT  3500  TIP3    H1 26707   0.417000   1.008000
26708         HT  3500  TIP3    H2 26708   0.417000   1.008000
26709         OT  3501  TIP3   OH2 26709  -0.834000  15.999400
26710         HT  3501  TIP3    H1 26710   0.417000   1.008000
26711         HT  3501  TIP3    H2 26711   0.417000   1.008000
26712         OT  3502  TIP3   OH2 26712  -0.834000  15.999400
26713         HT  3502  TIP3    H1 26713   0.417000   1.008000
26714         HT  3502  TIP3    H2 26714   0.417000   1.008000
26715         OT  3503  TIP3   OH2 26715  -0.834000  15.999400
26716         HT  3503  TIP3    H1 26716   0.417000   1.008000
26717         HT  3503  TIP3    H2 26717   0.417000   1.008000
26718         OT  3504  TIP3   OH2 26718  -0.834000  15.999400
26719         HT  3504  TIP3    H1 26719   0.417000   1.008000
26720         HT  3504  TIP3    H2 26720   0.417000   1.008000
26721         OT  3505  TIP3   OH2 26721  -0.834000  15.999400
26722         HT  3505  TIP3    H1 26722   0.417000   1.008000
26723         HT  3505  TIP3    H2 26723   0.417000   1.008000
26724         OT  3506  TIP3   OH2 26724  -0.834000  15.999400
26725         HT  3506  TIP3    H1 26725   0.417000   1.008000
26726         HT  3506  TIP3    H2 26726   0.417000   1.008000
26727         OT  3507  TIP3   OH2 26727  -0.834000  15.999400
26728         HT  3507  TIP3    H1 26728   0.417000   1.008000
26729         HT  3507  TIP3    H2 26729   0.417000   1.008000
26730         OT  3508  TIP3   OH2 26730  -0.834000  15.999400
26731         HT  3508  TIP3    H1 26731   0.417000   1.008000
26732         HT  3508  TIP3    H2 26732   0.417000   1.008000
26733         OT  3509  TIP3   OH2 26733  -0.834000  15.999400
26734         HT  3509  TIP3    H1 26734   0.417000   1.008000
26735         HT  3509  TIP3    H2 26735   0.417000   1.008000
26736         OT  3510  TIP3   OH2 26736  -0.834000  15.999400
26737         HT  3510  TIP3    H1 26737   0.417000   1.008000
26738         HT  3510  TIP3    H2 26738   0.417000   1.008000
26739         OT  3511  TIP3   OH2 26739  -0.834000  15.999400
26740         HT  3511  TIP3    H1 26740   0.417000   1.008000
26741         HT  3511  TIP3    H2 26741   0.417000   1.008000
26742         OT  3512  TIP3   OH2 26742  -0.834000  15.999400
26743         HT  3512  TIP3    H1 26743   0.417000   1.008000
26744         HT  3512  TIP3    H2 26744   0.417000   1.008000
26745         OT  3513  TIP3   OH2 26745  -0.834000  15.999400
26746         HT  3513  TIP3    H1 26746   0.417000   1.008000
26747         HT  3513  TIP3    H2 26747   0.417000   1.008000
26748         OT  3514  TIP3   OH2 26748  -0.834000  15.999400
26749         HT  3514  TIP3    H1 26749   0.417000   1.008000
26750         HT  3514  TIP3    H2 26750   0.417000   1.008000
26751         OT  3515  TIP3   OH2 26751  -0.834000  15.999400
26752         HT  3515  TIP3    H1 26752   0.417000   1.008000
26753         HT  3515  TIP3    H2 26753   0.417000   1.008000
26754         OT  3516  TIP3   OH2 26754  -0.834000  15.999400
26755         HT  3516  TIP3    H1 26755   0.417000   1.008000
26756         HT  3516  TIP3    H2 26756   0.417000   1.008000
26757         OT  3517  TIP3   OH2 26757  -0.834000  15.999400
26758         HT  3517  TIP3    H1 26758   0.417000   1.008000
26759         HT  3517  TIP3    H2 26759   0.417000   1.008000
26760         OT  3518  TIP3   OH2 26760  -0.834000  15.999400
26761         HT  3518  TIP3    H1 26761   0.417000   1.008000
26762         HT  3518  TIP3    H2 26762   0.417000   1.008000
26763         OT  3519  TIP3   OH2 26763  -0.834000  15.999400
26764         HT  3519  TIP3    H1 26764   0.417000   1.008000
26765         HT  3519  TIP3    H2 26765   0.417000   1.008000
26766         OT  3520  TIP3   OH2 26766  -0.834000  15.999400
26767         HT  3520  TIP3    H1 26767   0.417000   1.008000
26768         HT  3520  TIP3    H2 26768   0.417000   1.008000
26769         OT  3521  TIP3   OH2 26769  -0.834000  15.999400
26770         HT  3521  TIP3    H1 26770   0.417000   1.008000
26771         HT  3521  TIP3    H2 26771   0.417000   1.008000
26772         OT  3522  TIP3   OH2 26772  -0.834000  15.999400
26773         HT  3522  TIP3    H1 26773   0.417000   1.008000
26774         HT  3522  TIP3    H2 26774   0.417000   1.008000
26775         OT  3523  TIP3   OH2 26775  -0.834000  15.999400
26776         HT  3523  TIP3    H1 26776   0.417000   1.008000
26777         HT  3523  TIP3    H2 26777   0.417000   1.008000
26778         OT  3524  TIP3   OH2 26778  -0.834000  15.999400
26779         HT  3524  TIP3    H1 26779   0.417000   1.008000
26780         HT  3524  TIP3    H2 26780   0.417000   1.008000
26781         OT  3525  TIP3   OH2 26781  -0.834000  15.999400
26782         HT  3525  TIP3    H1 26782   0.417000   1.008000
26783         HT  3525  TIP3    H2 26783   0.417000   1.008000
26784         OT  3526  TIP3   OH2 26784  -0.834000  15.999400
26785         HT  3526  TIP3    H1 26785   0.417000   1.008000
26786         HT  3526  TIP3    H2 26786   0.417000   1.008000
26787         OT  3527  TIP3   OH2 26787  -0.834000  15.999400
26788         HT  3527  TIP3    H1 26788   0.417000   1.008000
26789         HT  3527  TIP3    H2 26789   0.417000   1.008000
26790         OT  3528  TIP3   OH2 26790  -0.834000  15.999400
26791         HT  3528  TIP3    H1 26791   0.417000   1.008000
26792         HT  3528  TIP3    H2 26792   0.417000   1.008000
26793         OT  3529  TIP3   OH2 26793  -0.834000  15.999400
26794         HT  3529  TIP3    H1 26794   0.417000   1.008000
26795         HT  3529  TIP3    H2 26795   0.417000   1.008000
26796         OT  3530  TIP3   OH2 26796  -0.834000  15.999400
26797         HT  3530  TIP3    H1 26797   0.417000   1.008000
26798         HT  3530  TIP3    H2 26798   0.417000   1.008000
26799         OT  3531  TIP3   OH2 26799  -0.834000  15.999400
26800         HT  3531  TIP3    H1 26800   0.417000   1.008000
26801         HT  3531  TIP3    H2 26801   0.417000   1.008000
26802         OT  3532  TIP3   OH2 26802  -0.834000  15.999400
26803         HT  3532  TIP3    H1 26803   0.417000   1.008000
26804         HT  3532  TIP3    H2 26804   0.417000   1.008000
26805         OT  3533  TIP3   OH2 26805  -0.834000  15.999400
26806         HT  3533  TIP3    H1 26806   0.417000   1.008000
26807         HT  3533  TIP3    H2 26807   0.417000   1.008000
26808         OT  3534  TIP3   OH2 26808  -0.834000  15.999400
26809         HT  3534  TIP3    H1 26809   0.417000   1.008000
26810         HT  3534  TIP3    H2 26810   0.417000   1.008000
26811         OT  3535  TIP3   OH2 26811  -0.834000  15.999400
26812         HT  3535  TIP3    H1 26812   0.417000   1.008000
26813         HT  3535  TIP3    H2 26813   0.417000   1.008000
26814         OT  3536  TIP3   OH2 26814  -0.834000  15.999400
26815         HT  3536  TIP3    H1 26815   0.417000   1.008000
26816         HT  3536  TIP3    H2 26816   0.417000   1.008000
26817         OT  3537  TIP3   OH2 26817  -0.834000  15.999400
26818         HT  3537  TIP3    H1 26818   0.417000   1.008000
26819         HT  3537  TIP3    H2 26819   0.417000   1.008000
26820         OT  3538  TIP3   OH2 26820  -0.834000  15.999400
26821         HT  3538  TIP3    H1 26821   0.417000   1.008000
26822         HT  3538  TIP3    H2 26822   0.417000   1.008000
26823         OT  3539  TIP3   OH2 26823  -0.834000  15.999400
26824         HT  3539  TIP3    H1 26824   0.417000   1.008000
26825         HT  3539  TIP3    H2 26825   0.417000   1.008000
26826         OT  3540  TIP3   OH2 26826  -0.834000  15.999400
26827         HT  3540  TIP3    H1 26827   0.417000   1.008000
26828         HT  3540  TIP3    H2 26828   0.417000   1.008000
26829         OT  3541  TIP3   OH2 26829  -0.834000  15.999400
26830         HT  3541  TIP3    H1 26830   0.417000   1.008000
26831         HT  3541  TIP3    H2 26831   0.417000   1.008000
26832         OT  3542  TIP3   OH2 26832  -0.834000  15.999400
26833         HT  3542  TIP3    H1 26833   0.417000   1.008000
26834         HT  3542  TIP3    H2 26834   0.417000   1.008000
26835         OT  3543  TIP3   OH2 26835  -0.834000  15.999400
26836         HT  3543  TIP3    H1 26836   0.417000   1.008000
26837         HT  3543  TIP3    H2 26837   0.417000   1.008000
26838         OT  3544  TIP3   OH2 26838  -0.834000  15.999400
26839         HT  3544  TIP3    H1 26839   0.417000   1.008000
26840         HT  3544  TIP3    H2 26840   0.417000   1.008000
26841         OT  3545  TIP3   OH2 26841  -0.834000  15.999400
26842         HT  3545  TIP3    H1 26842   0.417000   1.008000
26843         HT  3545  TIP3    H2 26843   0.417000   1.008000
26844         OT  3546  TIP3   OH2 26844  -0.834000  15.999400
26845         HT  3546  TIP3    H1 26845   0.417000   1.008000
26846         HT  3546  TIP3    H2 26846   0.417000   1.008000
26847         OT  3547  TIP3   OH2 26847  -0.834000  15.999400
26848         HT  3547  TIP3    H1 26848   0.417000   1.008000
26849         HT  3547  TIP3    H2 26849   0.417000   1.008000
26850         OT  3548  TIP3   OH2 26850  -0.834000  15.999400
26851         HT  3548  TIP3    H1 26851   0.417000   1.008000
26852         HT  3548  TIP3    H2 26852   0.417000   1.008000
26853         OT  3549  TIP3   OH2 26853  -0.834000  15.999400
26854         HT  3549  TIP3    H1 26854   0.417000   1.008000
26855         HT  3549  TIP3    H2 26855   0.417000   1.008000
26856         OT  3550  TIP3   OH2 26856  -0.834000  15.999400
26857         HT  3550  TIP3    H1 26857   0.417000   1.008000
26858         HT  3550  TIP3    H2 26858   0.417000   1.008000
26859         OT  3551  TIP3   OH2 26859  -0.834000  15.999400
26860         HT  3551  TIP3    H1 26860   0.417000   1.008000
26861         HT  3551  TIP3    H2 26861   0.417000   1.008000
26862         OT  3552  TIP3   OH2 26862  -0.834000  15.999400
26863         HT  3552  TIP3    H1 26863   0.417000   1.008000
26864         HT  3552  TIP3    H2 26864   0.417000   1.008000
26865         OT  3553  TIP3   OH2 26865  -0.834000  15.999400
26866         HT  3553  TIP3    H1 26866   0.417000   1.008000
26867         HT  3553  TIP3    H2 26867   0.417000   1.008000
26868         OT  3554  TIP3   OH2 26868  -0.834000  15.999400
26869         HT  3554  TIP3    H1 26869   0.417000   1.008000
26870         HT  3554  TIP3    H2 26870   0.417000   1.008000
26871         OT  3555  TIP3   OH2 26871  -0.834000  15.999400
26872         HT  3555  TIP3    H1 26872   0.417000   1.008000
26873         HT  3555  TIP3    H2 26873   0.417000   1.008000
26874         OT  3556  TIP3   OH2 26874  -0.834000  15.999400
26875         HT  3556  TIP3    H1 26875   0.417000   1.008000
26876         HT  3556  TIP3    H2 26876   0.417000   1.008000
26877         OT  3557  TIP3   OH2 26877  -0.834000  15.999400
26878         HT  3557  TIP3    H1 26878   0.417000   1.008000
26879         HT  3557  TIP3    H2 26879   0.417000   1.008000
26880         OT  3558  TIP3   OH2 26880  -0.834000  15.999400
26881         HT  3558  TIP3    H1 26881   0.417000   1.008000
26882         HT  3558  TIP3    H2 26882   0.417000   1.008000
26883         OT  3559  TIP3   OH2 26883  -0.834000  15.999400
26884         HT  3559  TIP3    H1 26884   0.417000   1.008000
26885         HT  3559  TIP3    H2 26885   0.417000   1.008000
26886         OT  3560  TIP3   OH2 26886  -0.834000  15.999400
26887         HT  3560  TIP3    H1 26887   0.417000   1.008000
26888         HT  3560  TIP3    H2 26888   0.417000   1.008000
26889         OT  3561  TIP3   OH2 26889  -0.834000  15.999400
26890         HT  3561  TIP3    H1 26890   0.417000   1.008000
26891         HT  3561  TIP3    H2 26891   0.417000   1.008000
26892         OT  3562  TIP3   OH2 26892  -0.834000  15.999400
26893         HT  3562  TIP3    H1 26893   0.417000   1.008000
26894         HT  3562  TIP3    H2 26894   0.417000   1.008000
26895         OT  3563  TIP3   OH2 26895  -0.834000  15.999400
26896         HT  3563  TIP3    H1 26896   0.417000   1.008000
26897         HT  3563  TIP3    H2 26897   0.417000   1.008000
26898         OT  3564  TIP3   OH2 26898  -0.834000  15.999400
26899         HT  3564  TIP3    H1 26899   0.417000   1.008000
26900         HT  3564  TIP3    H2 26900   0.417000   1.008000
26901         OT  3565  TIP3   OH2 26901  -0.834000  15.999400
26902         HT  3565  TIP3    H1 26902   0.417000   1.008000
26903         HT  3565  TIP3    H2 26903   0.417000   1.008000
26904         OT  3566  TIP3   OH2 26904  -0.834000  15.999400
26905         HT  3566  TIP3    H1 26905   0.417000   1.008000
26906         HT  3566  TIP3    H2 26906   0.417000   1.008000
26907         OT  3567  TIP3   OH2 26907  -0.834000  15.999400
26908         HT  3567  TIP3    H1 26908   0.417000   1.008000
26909         HT  3567  TIP3    H2 26909   0.417000   1.008000
26910         OT  3568  TIP3   OH2 26910  -0.834000  15.999400
26911         HT  3568  TIP3    H1 26911   0.417000   1.008000
26912         HT  3568  TIP3    H2 26912   0.417000   1.008000
26913         OT  3569  TIP3   OH2 26913  -0.834000  15.999400
26914         HT  3569  TIP3    H1 26914   0.417000   1.008000
26915         HT  3569  TIP3    H2 26915   0.417000   1.008000
26916         OT  3570  TIP3   OH2 26916  -0.834000  15.999400
26917         HT  3570  TIP3    H1 26917   0.417000   1.008000
26918         HT  3570  TIP3    H2 26918   0.417000   1.008000
26919         OT  3571  TIP3   OH2 26919  -0.834000  15.999400
26920         HT  3571  TIP3    H1 26920   0.417000   1.008000
26921         HT  3571  TIP3    H2 26921   0.417000   1.008000
26922         OT  3572  TIP3   OH2 26922  -0.834000  15.999400
26923         HT  3572  TIP3    H1 26923   0.417000   1.008000
26924         HT  3572  TIP3    H2 26924   0.417000   1.008000
26925         OT  3573  TIP3   OH2 26925  -0.834000  15.999400
26926         HT  3573  TIP3    H1 26926   0.417000   1.008000
26927         HT  3573  TIP3    H2 26927   0.417000   1.008000
26928         OT  3574  TIP3   OH2 26928  -0.834000  15.999400
26929         HT  3574  TIP3    H1 26929   0.417000   1.008000
26930         HT  3574  TIP3    H2 26930   0.417000   1.008000
26931         OT  3575  TIP3   OH2 26931  -0.834000  15.999400
26932         HT  3575  TIP3    H1 26932   0.417000   1.008000
26933         HT  3575  TIP3    H2 26933   0.417000   1.008000
26934         OT  3576  TIP3   OH2 26934  -0.834000  15.999400
26935         HT  3576  TIP3    H1 26935   0.417000   1.008000
26936         HT  3576  TIP3    H2 26936   0.417000   1.008000
26937         OT  3577  TIP3   OH2 26937  -0.834000  15.999400
26938         HT  3577  TIP3    H1 26938   0.417000   1.008000
26939         HT  3577  TIP3    H2 26939   0.417000   1.008000
26940         OT  3578  TIP3   OH2 26940  -0.834000  15.999400
26941         HT  3578  TIP3    H1 26941   0.417000   1.008000
26942         HT  3578  TIP3    H2 26942   0.417000   1.008000
26943         OT  3579  TIP3   OH2 26943  -0.834000  15.999400
26944         HT  3579  TIP3    H1 26944   0.417000   1.008000
26945         HT  3579  TIP3    H2 26945   0.417000   1.008000
26946         OT  3580  TIP3   OH2 26946  -0.834000  15.999400
26947         HT  3580  TIP3    H1 26947   0.417000   1.008000
26948         HT  3580  TIP3    H2 26948   0.417000   1.008000
26949         OT  3581  TIP3   OH2 26949  -0.834000  15.999400
26950         HT  3581  TIP3    H1 26950   0.417000   1.008000
26951         HT  3581  TIP3    H2 26951   0.417000   1.008000
26952         OT  3582  TIP3   OH2 26952  -0.834000  15.999400
26953         HT  3582  TIP3    H1 26953   0.417000   1.008000
26954         HT  3582  TIP3    H2 26954   0.417000   1.008000
26955         OT  3583  TIP3   OH2 26955  -0.834000  15.999400
26956         HT  3583  TIP3    H1 26956   0.417000   1.008000
26957         HT  3583  TIP3    H2 26957   0.417000   1.008000
26958         OT  3584  TIP3   OH2 26958  -0.834000  15.999400
26959         HT  3584  TIP3    H1 26959   0.417000   1.008000
26960         HT  3584  TIP3    H2 26960   0.417000   1.008000
26961         OT  3585  TIP3   OH2 26961  -0.834000  15.999400
26962         HT  3585  TIP3    H1 26962   0.417000   1.008000
26963         HT  3585  TIP3    H2 26963   0.417000   1.008000
26964         OT  3586  TIP3   OH2 26964  -0.834000  15.999400
26965         HT  3586  TIP3    H1 26965   0.417000   1.008000
26966         HT  3586  TIP3    H2 26966   0.417000   1.008000
26967         OT  3587  TIP3   OH2 26967  -0.834000  15.999400
26968         HT  3587  TIP3    H1 26968   0.417000   1.008000
26969         HT  3587  TIP3    H2 26969   0.417000   1.008000
26970         OT  3588  TIP3   OH2 26970  -0.834000  15.999400
26971         HT  3588  TIP3    H1 26971   0.417000   1.008000
26972         HT  3588  TIP3    H2 26972   0.417000   1.008000
26973         OT  3589  TIP3   OH2 26973  -0.834000  15.999400
26974         HT  3589  TIP3    H1 26974   0.417000   1.008000
26975         HT  3589  TIP3    H2 26975   0.417000   1.008000
26976         OT  3590  TIP3   OH2 26976  -0.834000  15.999400
26977         HT  3590  TIP3    H1 26977   0.417000   1.008000
26978         HT  3590  TIP3    H2 26978   0.417000   1.008000
26979         OT  3591  TIP3   OH2 26979  -0.834000  15.999400
26980         HT  3591  TIP3    H1 26980   0.417000   1.008000
26981         HT  3591  TIP3    H2 26981   0.417000   1.008000
26982         OT  3592  TIP3   OH2 26982  -0.834000  15.999400
26983         HT  3592  TIP3    H1 26983   0.417000   1.008000
26984         HT  3592  TIP3    H2 26984   0.417000   1.008000
26985         OT  3593  TIP3   OH2 26985  -0.834000  15.999400
26986         HT  3593  TIP3    H1 26986   0.417000   1.008000
26987         HT  3593  TIP3    H2 26987   0.417000   1.008000
26988         OT  3594  TIP3   OH2 26988  -0.834000  15.999400
26989         HT  3594  TIP3    H1 26989   0.417000   1.008000
26990         HT  3594  TIP3    H2 26990   0.417000   1.008000
26991         OT  3595  TIP3   OH2 26991  -0.834000  15.999400
26992         HT  3595  TIP3    H1 26992   0.417000   1.008000
26993         HT  3595  TIP3    H2 26993   0.417000   1.008000
26994         OT  3596  TIP3   OH2 26994  -0.834000  15.999400
26995         HT  3596  TIP3    H1 26995   0.417000   1.008000
26996         HT  3596  TIP3    H2 26996   0.417000   1.008000
26997         OT  3597  TIP3   OH2 26997  -0.834000  15.999400
26998         HT  3597  TIP3    H1 26998   0.417000   1.008000
26999         HT  3597  TIP3    H2 26999   0.417000   1.008000
27000         OT  3598  TIP3   OH2 27000  -0.834000  15.999400
27001         HT  3598  TIP3    H1 27001   0.417000   1.008000
27002         HT  3598  TIP3    H2 27002   0.417000   1.008000
27003         OT  3599  TIP3   OH2 27003  -0.834000  15.999400
27004         HT  3599  TIP3    H1 27004   0.417000   1.008000
27005         HT  3599  TIP3    H2 27005   0.417000   1.008000
27006         OT  3600  TIP3   OH2 27006  -0.834000  15.999400
27007         HT  3600  TIP3    H1 27007   0.417000   1.008000
27008         HT  3600  TIP3    H2 27008   0.417000   1.008000
27009         OT  3601  TIP3   OH2 27009  -0.834000  15.999400
27010         HT  3601  TIP3    H1 27010   0.417000   1.008000
27011         HT  3601  TIP3    H2 27011   0.417000   1.008000
27012         OT  3602  TIP3   OH2 27012  -0.834000  15.999400
27013         HT  3602  TIP3    H1 27013   0.417000   1.008000
27014         HT  3602  TIP3    H2 27014   0.417000   1.008000
27015         OT  3603  TIP3   OH2 27015  -0.834000  15.999400
27016         HT  3603  TIP3    H1 27016   0.417000   1.008000
27017         HT  3603  TIP3    H2 27017   0.417000   1.008000
27018         OT  3604  TIP3   OH2 27018  -0.834000  15.999400
27019         HT  3604  TIP3    H1 27019   0.417000   1.008000
27020         HT  3604  TIP3    H2 27020   0.417000   1.008000
27021         OT  3605  TIP3   OH2 27021  -0.834000  15.999400
27022         HT  3605  TIP3    H1 27022   0.417000   1.008000
27023         HT  3605  TIP3    H2 27023   0.417000   1.008000
27024         OT  3606  TIP3   OH2 27024  -0.834000  15.999400
27025         HT  3606  TIP3    H1 27025   0.417000   1.008000
27026         HT  3606  TIP3    H2 27026   0.417000   1.008000
27027         OT  3607  TIP3   OH2 27027  -0.834000  15.999400
27028         HT  3607  TIP3    H1 27028   0.417000   1.008000
27029         HT  3607  TIP3    H2 27029   0.417000   1.008000
27030         OT  3608  TIP3   OH2 27030  -0.834000  15.999400
27031         HT  3608  TIP3    H1 27031   0.417000   1.008000
27032         HT  3608  TIP3    H2 27032   0.417000   1.008000
27033         OT  3609  TIP3   OH2 27033  -0.834000  15.999400
27034         HT  3609  TIP3    H1 27034   0.417000   1.008000
27035         HT  3609  TIP3    H2 27035   0.417000   1.008000
27036         OT  3610  TIP3   OH2 27036  -0.834000  15.999400
27037         HT  3610  TIP3    H1 27037   0.417000   1.008000
27038         HT  3610  TIP3    H2 27038   0.417000   1.008000
27039         OT  3611  TIP3   OH2 27039  -0.834000  15.999400
27040         HT  3611  TIP3    H1 27040   0.417000   1.008000
27041         HT  3611  TIP3    H2 27041   0.417000   1.008000
27042         OT  3612  TIP3   OH2 27042  -0.834000  15.999400
27043         HT  3612  TIP3    H1 27043   0.417000   1.008000
27044         HT  3612  TIP3    H2 27044   0.417000   1.008000
27045         OT  3613  TIP3   OH2 27045  -0.834000  15.999400
27046         HT  3613  TIP3    H1 27046   0.417000   1.008000
27047         HT  3613  TIP3    H2 27047   0.417000   1.008000
27048         OT  3614  TIP3   OH2 27048  -0.834000  15.999400
27049         HT  3614  TIP3    H1 27049   0.417000   1.008000
27050         HT  3614  TIP3    H2 27050   0.417000   1.008000
27051         OT  3615  TIP3   OH2 27051  -0.834000  15.999400
27052         HT  3615  TIP3    H1 27052   0.417000   1.008000
27053         HT  3615  TIP3    H2 27053   0.417000   1.008000
27054         OT  3616  TIP3   OH2 27054  -0.834000  15.999400
27055         HT  3616  TIP3    H1 27055   0.417000   1.008000
27056         HT  3616  TIP3    H2 27056   0.417000   1.008000
27057         OT  3617  TIP3   OH2 27057  -0.834000  15.999400
27058         HT  3617  TIP3    H1 27058   0.417000   1.008000
27059         HT  3617  TIP3    H2 27059   0.417000   1.008000
27060         OT  3618  TIP3   OH2 27060  -0.834000  15.999400
27061         HT  3618  TIP3    H1 27061   0.417000   1.008000
27062         HT  3618  TIP3    H2 27062   0.417000   1.008000
27063         OT  3619  TIP3   OH2 27063  -0.834000  15.999400
27064         HT  3619  TIP3    H1 27064   0.417000   1.008000
27065         HT  3619  TIP3    H2 27065   0.417000   1.008000
27066         OT  3620  TIP3   OH2 27066  -0.834000  15.999400
27067         HT  3620  TIP3    H1 27067   0.417000   1.008000
27068         HT  3620  TIP3    H2 27068   0.417000   1.008000
27069         OT  3621  TIP3   OH2 27069  -0.834000  15.999400
27070         HT  3621  TIP3    H1 27070   0.417000   1.008000
27071         HT  3621  TIP3    H2 27071   0.417000   1.008000
27072         OT  3622  TIP3   OH2 27072  -0.834000  15.999400
27073         HT  3622  TIP3    H1 27073   0.417000   1.008000
27074         HT  3622  TIP3    H2 27074   0.417000   1.008000
27075         OT  3623  TIP3   OH2 27075  -0.834000  15.999400
27076         HT  3623  TIP3    H1 27076   0.417000   1.008000
27077         HT  3623  TIP3    H2 27077   0.417000   1.008000
27078         OT  3624  TIP3   OH2 27078  -0.834000  15.999400
27079         HT  3624  TIP3    H1 27079   0.417000   1.008000
27080         HT  3624  TIP3    H2 27080   0.417000   1.008000
27081         OT  3625  TIP3   OH2 27081  -0.834000  15.999400
27082         HT  3625  TIP3    H1 27082   0.417000   1.008000
27083         HT  3625  TIP3    H2 27083   0.417000   1.008000
27084         OT  3626  TIP3   OH2 27084  -0.834000  15.999400
27085         HT  3626  TIP3    H1 27085   0.417000   1.008000
27086         HT  3626  TIP3    H2 27086   0.417000   1.008000
27087         OT  3627  TIP3   OH2 27087  -0.834000  15.999400
27088         HT  3627  TIP3    H1 27088   0.417000   1.008000
27089         HT  3627  TIP3    H2 27089   0.417000   1.008000
27090         OT  3628  TIP3   OH2 27090  -0.834000  15.999400
27091         HT  3628  TIP3    H1 27091   0.417000   1.008000
27092         HT  3628  TIP3    H2 27092   0.417000   1.008000
27093         OT  3629  TIP3   OH2 27093  -0.834000  15.999400
27094         HT  3629  TIP3    H1 27094   0.417000   1.008000
27095         HT  3629  TIP3    H2 27095   0.417000   1.008000
27096         OT  3630  TIP3   OH2 27096  -0.834000  15.999400
27097         HT  3630  TIP3    H1 27097   0.417000   1.008000
27098         HT  3630  TIP3    H2 27098   0.417000   1.008000
27099         OT  3631  TIP3   OH2 27099  -0.834000  15.999400
27100         HT  3631  TIP3    H1 27100   0.417000   1.008000
27101         HT  3631  TIP3    H2 27101   0.417000   1.008000
27102         OT  3632  TIP3   OH2 27102  -0.834000  15.999400
27103         HT  3632  TIP3    H1 27103   0.417000   1.008000
27104         HT  3632  TIP3    H2 27104   0.417000   1.008000
27105         OT  3633  TIP3   OH2 27105  -0.834000  15.999400
27106         HT  3633  TIP3    H1 27106   0.417000   1.008000
27107         HT  3633  TIP3    H2 27107   0.417000   1.008000
27108         OT  3634  TIP3   OH2 27108  -0.834000  15.999400
27109         HT  3634  TIP3    H1 27109   0.417000   1.008000
27110         HT  3634  TIP3    H2 27110   0.417000   1.008000
27111         OT  3635  TIP3   OH2 27111  -0.834000  15.999400
27112         HT  3635  TIP3    H1 27112   0.417000   1.008000
27113         HT  3635  TIP3    H2 27113   0.417000   1.008000
27114         OT  3636  TIP3   OH2 27114  -0.834000  15.999400
27115         HT  3636  TIP3    H1 27115   0.417000   1.008000
27116         HT  3636  TIP3    H2 27116   0.417000   1.008000
27117         OT  3637  TIP3   OH2 27117  -0.834000  15.999400
27118         HT  3637  TIP3    H1 27118   0.417000   1.008000
27119         HT  3637  TIP3    H2 27119   0.417000   1.008000
27120         OT  3638  TIP3   OH2 27120  -0.834000  15.999400
27121         HT  3638  TIP3    H1 27121   0.417000   1.008000
27122         HT  3638  TIP3    H2 27122   0.417000   1.008000
27123         OT  3639  TIP3   OH2 27123  -0.834000  15.999400
27124         HT  3639  TIP3    H1 27124   0.417000   1.008000
27125         HT  3639  TIP3    H2 27125   0.417000   1.008000
27126         OT  3640  TIP3   OH2 27126  -0.834000  15.999400
27127         HT  3640  TIP3    H1 27127   0.417000   1.008000
27128         HT  3640  TIP3    H2 27128   0.417000   1.008000
27129         OT  3641  TIP3   OH2 27129  -0.834000  15.999400
27130         HT  3641  TIP3    H1 27130   0.417000   1.008000
27131         HT  3641  TIP3    H2 27131   0.417000   1.008000
27132         OT  3642  TIP3   OH2 27132  -0.834000  15.999400
27133         HT  3642  TIP3    H1 27133   0.417000   1.008000
27134         HT  3642  TIP3    H2 27134   0.417000   1.008000
27135         OT  3643  TIP3   OH2 27135  -0.834000  15.999400
27136         HT  3643  TIP3    H1 27136   0.417000   1.008000
27137         HT  3643  TIP3    H2 27137   0.417000   1.008000
27138         OT  3644  TIP3   OH2 27138  -0.834000  15.999400
27139         HT  3644  TIP3    H1 27139   0.417000   1.008000
27140         HT  3644  TIP3    H2 27140   0.417000   1.008000
27141         OT  3645  TIP3   OH2 27141  -0.834000  15.999400
27142         HT  3645  TIP3    H1 27142   0.417000   1.008000
27143         HT  3645  TIP3    H2 27143   0.417000   1.008000
27144         OT  3646  TIP3   OH2 27144  -0.834000  15.999400
27145         HT  3646  TIP3    H1 27145   0.417000   1.008000
27146         HT  3646  TIP3    H2 27146   0.417000   1.008000
27147         OT  3647  TIP3   OH2 27147  -0.834000  15.999400
27148         HT  3647  TIP3    H1 27148   0.417000   1.008000
27149         HT  3647  TIP3    H2 27149   0.417000   1.008000
27150         OT  3648  TIP3   OH2 27150  -0.834000  15.999400
27151         HT  3648  TIP3    H1 27151   0.417000   1.008000
27152         HT  3648  TIP3    H2 27152   0.417000   1.008000
27153         OT  3649  TIP3   OH2 27153  -0.834000  15.999400
27154         HT  3649  TIP3    H1 27154   0.417000   1.008000
27155         HT  3649  TIP3    H2 27155   0.417000   1.008000
27156         OT  3650  TIP3   OH2 27156  -0.834000  15.999400
27157         HT  3650  TIP3    H1 27157   0.417000   1.008000
27158         HT  3650  TIP3    H2 27158   0.417000   1.008000
27159         OT  3651  TIP3   OH2 27159  -0.834000  15.999400
27160         HT  3651  TIP3    H1 27160   0.417000   1.008000
27161         HT  3651  TIP3    H2 27161   0.417000   1.008000
27162         OT  3652  TIP3   OH2 27162  -0.834000  15.999400
27163         HT  3652  TIP3    H1 27163   0.417000   1.008000
27164         HT  3652  TIP3    H2 27164   0.417000   1.008000
27165         OT  3653  TIP3   OH2 27165  -0.834000  15.999400
27166         HT  3653  TIP3    H1 27166   0.417000   1.008000
27167         HT  3653  TIP3    H2 27167   0.417000   1.008000
27168         OT  3654  TIP3   OH2 27168  -0.834000  15.999400
27169         HT  3654  TIP3    H1 27169   0.417000   1.008000
27170         HT  3654  TIP3    H2 27170   0.417000   1.008000
27171         OT  3655  TIP3   OH2 27171  -0.834000  15.999400
27172         HT  3655  TIP3    H1 27172   0.417000   1.008000
27173         HT  3655  TIP3    H2 27173   0.417000   1.008000
27174         OT  3656  TIP3   OH2 27174  -0.834000  15.999400
27175         HT  3656  TIP3    H1 27175   0.417000   1.008000
27176         HT  3656  TIP3    H2 27176   0.417000   1.008000
27177         OT  3657  TIP3   OH2 27177  -0.834000  15.999400
27178         HT  3657  TIP3    H1 27178   0.417000   1.008000
27179         HT  3657  TIP3    H2 27179   0.417000   1.008000
27180         OT  3658  TIP3   OH2 27180  -0.834000  15.999400
27181         HT  3658  TIP3    H1 27181   0.417000   1.008000
27182         HT  3658  TIP3    H2 27182   0.417000   1.008000
27183         OT  3659  TIP3   OH2 27183  -0.834000  15.999400
27184         HT  3659  TIP3    H1 27184   0.417000   1.008000
27185         HT  3659  TIP3    H2 27185   0.417000   1.008000
27186         OT  3660  TIP3   OH2 27186  -0.834000  15.999400
27187         HT  3660  TIP3    H1 27187   0.417000   1.008000
27188         HT  3660  TIP3    H2 27188   0.417000   1.008000
27189         OT  3661  TIP3   OH2 27189  -0.834000  15.999400
27190         HT  3661  TIP3    H1 27190   0.417000   1.008000
27191         HT  3661  TIP3    H2 27191   0.417000   1.008000
27192         OT  3662  TIP3   OH2 27192  -0.834000  15.999400
27193         HT  3662  TIP3    H1 27193   0.417000   1.008000
27194         HT  3662  TIP3    H2 27194   0.417000   1.008000
27195         OT  3663  TIP3   OH2 27195  -0.834000  15.999400
27196         HT  3663  TIP3    H1 27196   0.417000   1.008000
27197         HT  3663  TIP3    H2 27197   0.417000   1.008000
27198         OT  3664  TIP3   OH2 27198  -0.834000  15.999400
27199         HT  3664  TIP3    H1 27199   0.417000   1.008000
27200         HT  3664  TIP3    H2 27200   0.417000   1.008000
27201         OT  3665  TIP3   OH2 27201  -0.834000  15.999400
27202         HT  3665  TIP3    H1 27202   0.417000   1.008000
27203         HT  3665  TIP3    H2 27203   0.417000   1.008000
27204         OT  3666  TIP3   OH2 27204  -0.834000  15.999400
27205         HT  3666  TIP3    H1 27205   0.417000   1.008000
27206         HT  3666  TIP3    H2 27206   0.417000   1.008000
27207         OT  3667  TIP3   OH2 27207  -0.834000  15.999400
27208         HT  3667  TIP3    H1 27208   0.417000   1.008000
27209         HT  3667  TIP3    H2 27209   0.417000   1.008000
27210         OT  3668  TIP3   OH2 27210  -0.834000  15.999400
27211         HT  3668  TIP3    H1 27211   0.417000   1.008000
27212         HT  3668  TIP3    H2 27212   0.417000   1.008000
27213         OT  3669  TIP3   OH2 27213  -0.834000  15.999400
27214         HT  3669  TIP3    H1 27214   0.417000   1.008000
27215         HT  3669  TIP3    H2 27215   0.417000   1.008000
27216         OT  3670  TIP3   OH2 27216  -0.834000  15.999400
27217         HT  3670  TIP3    H1 27217   0.417000   1.008000
27218         HT  3670  TIP3    H2 27218   0.417000   1.008000
27219         OT  3671  TIP3   OH2 27219  -0.834000  15.999400
27220         HT  3671  TIP3    H1 27220   0.417000   1.008000
27221         HT  3671  TIP3    H2 27221   0.417000   1.008000
27222         OT  3672  TIP3   OH2 27222  -0.834000  15.999400
27223         HT  3672  TIP3    H1 27223   0.417000   1.008000
27224         HT  3672  TIP3    H2 27224   0.417000   1.008000
27225         OT  3673  TIP3   OH2 27225  -0.834000  15.999400
27226         HT  3673  TIP3    H1 27226   0.417000   1.008000
27227         HT  3673  TIP3    H2 27227   0.417000   1.008000
27228         OT  3674  TIP3   OH2 27228  -0.834000  15.999400
27229         HT  3674  TIP3    H1 27229   0.417000   1.008000
27230         HT  3674  TIP3    H2 27230   0.417000   1.008000
27231         OT  3675  TIP3   OH2 27231  -0.834000  15.999400
27232         HT  3675  TIP3    H1 27232   0.417000   1.008000
27233         HT  3675  TIP3    H2 27233   0.417000   1.008000
27234         OT  3676  TIP3   OH2 27234  -0.834000  15.999400
27235         HT  3676  TIP3    H1 27235   0.417000   1.008000
27236         HT  3676  TIP3    H2 27236   0.417000   1.008000
27237         OT  3677  TIP3   OH2 27237  -0.834000  15.999400
27238         HT  3677  TIP3    H1 27238   0.417000   1.008000
27239         HT  3677  TIP3    H2 27239   0.417000   1.008000
27240         OT  3678  TIP3   OH2 27240  -0.834000  15.999400
27241         HT  3678  TIP3    H1 27241   0.417000   1.008000
27242         HT  3678  TIP3    H2 27242   0.417000   1.008000
27243         OT  3679  TIP3   OH2 27243  -0.834000  15.999400
27244         HT  3679  TIP3    H1 27244   0.417000   1.008000
27245         HT  3679  TIP3    H2 27245   0.417000   1.008000
27246         OT  3680  TIP3   OH2 27246  -0.834000  15.999400
27247         HT  3680  TIP3    H1 27247   0.417000   1.008000
27248         HT  3680  TIP3    H2 27248   0.417000   1.008000
27249         OT  3681  TIP3   OH2 27249  -0.834000  15.999400
27250         HT  3681  TIP3    H1 27250   0.417000   1.008000
27251         HT  3681  TIP3    H2 27251   0.417000   1.008000
27252         OT  3682  TIP3   OH2 27252  -0.834000  15.999400
27253         HT  3682  TIP3    H1 27253   0.417000   1.008000
27254         HT  3682  TIP3    H2 27254   0.417000   1.008000
27255         OT  3683  TIP3   OH2 27255  -0.834000  15.999400
27256         HT  3683  TIP3    H1 27256   0.417000   1.008000
27257         HT  3683  TIP3    H2 27257   0.417000   1.008000
27258         OT  3684  TIP3   OH2 27258  -0.834000  15.999400
27259         HT  3684  TIP3    H1 27259   0.417000   1.008000
27260         HT  3684  TIP3    H2 27260   0.417000   1.008000
27261         OT  3685  TIP3   OH2 27261  -0.834000  15.999400
27262         HT  3685  TIP3    H1 27262   0.417000   1.008000
27263         HT  3685  TIP3    H2 27263   0.417000   1.008000
27264         OT  3686  TIP3   OH2 27264  -0.834000  15.999400
27265         HT  3686  TIP3    H1 27265   0.417000   1.008000
27266         HT  3686  TIP3    H2 27266   0.417000   1.008000
27267         OT  3687  TIP3   OH2 27267  -0.834000  15.999400
27268         HT  3687  TIP3    H1 27268   0.417000   1.008000
27269         HT  3687  TIP3    H2 27269   0.417000   1.008000
27270         OT  3688  TIP3   OH2 27270  -0.834000  15.999400
27271         HT  3688  TIP3    H1 27271   0.417000   1.008000
27272         HT  3688  TIP3    H2 27272   0.417000   1.008000
27273         OT  3689  TIP3   OH2 27273  -0.834000  15.999400
27274         HT  3689  TIP3    H1 27274   0.417000   1.008000
27275         HT  3689  TIP3    H2 27275   0.417000   1.008000
27276         OT  3690  TIP3   OH2 27276  -0.834000  15.999400
27277         HT  3690  TIP3    H1 27277   0.417000   1.008000
27278         HT  3690  TIP3    H2 27278   0.417000   1.008000
27279         OT  3691  TIP3   OH2 27279  -0.834000  15.999400
27280         HT  3691  TIP3    H1 27280   0.417000   1.008000
27281         HT  3691  TIP3    H2 27281   0.417000   1.008000
27282         OT  3692  TIP3   OH2 27282  -0.834000  15.999400
27283         HT  3692  TIP3    H1 27283   0.417000   1.008000
27284         HT  3692  TIP3    H2 27284   0.417000   1.008000
27285         OT  3693  TIP3   OH2 27285  -0.834000  15.999400
27286         HT  3693  TIP3    H1 27286   0.417000   1.008000
27287         HT  3693  TIP3    H2 27287   0.417000   1.008000
27288         OT  3694  TIP3   OH2 27288  -0.834000  15.999400
27289         HT  3694  TIP3    H1 27289   0.417000   1.008000
27290         HT  3694  TIP3    H2 27290   0.417000   1.008000
27291         OT  3695  TIP3   OH2 27291  -0.834000  15.999400
27292         HT  3695  TIP3    H1 27292   0.417000   1.008000
27293         HT  3695  TIP3    H2 27293   0.417000   1.008000
27294         OT  3696  TIP3   OH2 27294  -0.834000  15.999400
27295         HT  3696  TIP3    H1 27295   0.417000   1.008000
27296         HT  3696  TIP3    H2 27296   0.417000   1.008000
27297         OT  3697  TIP3   OH2 27297  -0.834000  15.999400
27298         HT  3697  TIP3    H1 27298   0.417000   1.008000
27299         HT  3697  TIP3    H2 27299   0.417000   1.008000
27300         OT  3698  TIP3   OH2 27300  -0.834000  15.999400
27301         HT  3698  TIP3    H1 27301   0.417000   1.008000
27302         HT  3698  TIP3    H2 27302   0.417000   1.008000
27303         OT  3699  TIP3   OH2 27303  -0.834000  15.999400
27304         HT  3699  TIP3    H1 27304   0.417000   1.008000
27305         HT  3699  TIP3    H2 27305   0.417000   1.008000
27306         OT  3700  TIP3   OH2 27306  -0.834000  15.999400
27307         HT  3700  TIP3    H1 27307   0.417000   1.008000
27308         HT  3700  TIP3    H2 27308   0.417000   1.008000
27309         OT  3701  TIP3   OH2 27309  -0.834000  15.999400
27310         HT  3701  TIP3    H1 27310   0.417000   1.008000
27311         HT  3701  TIP3    H2 27311   0.417000   1.008000
27312         OT  3702  TIP3   OH2 27312  -0.834000  15.999400
27313         HT  3702  TIP3    H1 27313   0.417000   1.008000
27314         HT  3702  TIP3    H2 27314   0.417000   1.008000
27315         OT  3703  TIP3   OH2 27315  -0.834000  15.999400
27316         HT  3703  TIP3    H1 27316   0.417000   1.008000
27317         HT  3703  TIP3    H2 27317   0.417000   1.008000
27318         OT  3704  TIP3   OH2 27318  -0.834000  15.999400
27319         HT  3704  TIP3    H1 27319   0.417000   1.008000
27320         HT  3704  TIP3    H2 27320   0.417000   1.008000
27321         OT  3705  TIP3   OH2 27321  -0.834000  15.999400
27322         HT  3705  TIP3    H1 27322   0.417000   1.008000
27323         HT  3705  TIP3    H2 27323   0.417000   1.008000
27324         OT  3706  TIP3   OH2 27324  -0.834000  15.999400
27325         HT  3706  TIP3    H1 27325   0.417000   1.008000
27326         HT  3706  TIP3    H2 27326   0.417000   1.008000
27327         OT  3707  TIP3   OH2 27327  -0.834000  15.999400
27328         HT  3707  TIP3    H1 27328   0.417000   1.008000
27329         HT  3707  TIP3    H2 27329   0.417000   1.008000
27330         OT  3708  TIP3   OH2 27330  -0.834000  15.999400
27331         HT  3708  TIP3    H1 27331   0.417000   1.008000
27332         HT  3708  TIP3    H2 27332   0.417000   1.008000
27333         OT  3709  TIP3   OH2 27333  -0.834000  15.999400
27334         HT  3709  TIP3    H1 27334   0.417000   1.008000
27335         HT  3709  TIP3    H2 27335   0.417000   1.008000
27336         OT  3710  TIP3   OH2 27336  -0.834000  15.999400
27337         HT  3710  TIP3    H1 27337   0.417000   1.008000
27338         HT  3710  TIP3    H2 27338   0.417000   1.008000
27339         OT  3711  TIP3   OH2 27339  -0.834000  15.999400
27340         HT  3711  TIP3    H1 27340   0.417000   1.008000
27341         HT  3711  TIP3    H2 27341   0.417000   1.008000
27342         OT  3712  TIP3   OH2 27342  -0.834000  15.999400
27343         HT  3712  TIP3    H1 27343   0.417000   1.008000
27344         HT  3712  TIP3    H2 27344   0.417000   1.008000
27345         OT  3713  TIP3   OH2 27345  -0.834000  15.999400
27346         HT  3713  TIP3    H1 27346   0.417000   1.008000
27347         HT  3713  TIP3    H2 27347   0.417000   1.008000
27348         OT  3714  TIP3   OH2 27348  -0.834000  15.999400
27349         HT  3714  TIP3    H1 27349   0.417000   1.008000
27350         HT  3714  TIP3    H2 27350   0.417000   1.008000
27351         OT  3715  TIP3   OH2 27351  -0.834000  15.999400
27352         HT  3715  TIP3    H1 27352   0.417000   1.008000
27353         HT  3715  TIP3    H2 27353   0.417000   1.008000
27354         OT  3716  TIP3   OH2 27354  -0.834000  15.999400
27355         HT  3716  TIP3    H1 27355   0.417000   1.008000
27356         HT  3716  TIP3    H2 27356   0.417000   1.008000
27357         OT  3717  TIP3   OH2 27357  -0.834000  15.999400
27358         HT  3717  TIP3    H1 27358   0.417000   1.008000
27359         HT  3717  TIP3    H2 27359   0.417000   1.008000
27360         OT  3718  TIP3   OH2 27360  -0.834000  15.999400
27361         HT  3718  TIP3    H1 27361   0.417000   1.008000
27362         HT  3718  TIP3    H2 27362   0.417000   1.008000
27363         OT  3719  TIP3   OH2 27363  -0.834000  15.999400
27364         HT  3719  TIP3    H1 27364   0.417000   1.008000
27365         HT  3719  TIP3    H2 27365   0.417000   1.008000
27366         OT  3720  TIP3   OH2 27366  -0.834000  15.999400
27367         HT  3720  TIP3    H1 27367   0.417000   1.008000
27368         HT  3720  TIP3    H2 27368   0.417000   1.008000
27369         OT  3721  TIP3   OH2 27369  -0.834000  15.999400
27370         HT  3721  TIP3    H1 27370   0.417000   1.008000
27371         HT  3721  TIP3    H2 27371   0.417000   1.008000
27372         OT  3722  TIP3   OH2 27372  -0.834000  15.999400
27373         HT  3722  TIP3    H1 27373   0.417000   1.008000
27374         HT  3722  TIP3    H2 27374   0.417000   1.008000
27375         OT  3723  TIP3   OH2 27375  -0.834000  15.999400
27376         HT  3723  TIP3    H1 27376   0.417000   1.008000
27377         HT  3723  TIP3    H2 27377   0.417000   1.008000
27378         OT  3724  TIP3   OH2 27378  -0.834000  15.999400
27379         HT  3724  TIP3    H1 27379   0.417000   1.008000
27380         HT  3724  TIP3    H2 27380   0.417000   1.008000
27381         OT  3725  TIP3   OH2 27381  -0.834000  15.999400
27382         HT  3725  TIP3    H1 27382   0.417000   1.008000
27383         HT  3725  TIP3    H2 27383   0.417000   1.008000
27384         OT  3726  TIP3   OH2 27384  -0.834000  15.999400
27385         HT  3726  TIP3    H1 27385   0.417000   1.008000
27386         HT  3726  TIP3    H2 27386   0.417000   1.008000
27387         OT  3727  TIP3   OH2 27387  -0.834000  15.999400
27388         HT  3727  TIP3    H1 27388   0.417000   1.008000
27389         HT  3727  TIP3    H2 27389   0.417000   1.008000
27390         OT  3728  TIP3   OH2 27390  -0.834000  15.999400
27391         HT  3728  TIP3    H1 27391   0.417000   1.008000
27392         HT  3728  TIP3    H2 27392   0.417000   1.008000
27393         OT  3729  TIP3   OH2 27393  -0.834000  15.999400
27394         HT  3729  TIP3    H1 27394   0.417000   1.008000
27395         HT  3729  TIP3    H2 27395   0.417000   1.008000
27396         OT  3730  TIP3   OH2 27396  -0.834000  15.999400
27397         HT  3730  TIP3    H1 27397   0.417000   1.008000
27398         HT  3730  TIP3    H2 27398   0.417000   1.008000
27399         OT  3731  TIP3   OH2 27399  -0.834000  15.999400
27400         HT  3731  TIP3    H1 27400   0.417000   1.008000
27401         HT  3731  TIP3    H2 27401   0.417000   1.008000
27402         OT  3732  TIP3   OH2 27402  -0.834000  15.999400
27403         HT  3732  TIP3    H1 27403   0.417000   1.008000
27404         HT  3732  TIP3    H2 27404   0.417000   1.008000
27405         OT  3733  TIP3   OH2 27405  -0.834000  15.999400
27406         HT  3733  TIP3    H1 27406   0.417000   1.008000
27407         HT  3733  TIP3    H2 27407   0.417000   1.008000
27408         OT  3734  TIP3   OH2 27408  -0.834000  15.999400
27409         HT  3734  TIP3    H1 27409   0.417000   1.008000
27410         HT  3734  TIP3    H2 27410   0.417000   1.008000
27411         OT  3735  TIP3   OH2 27411  -0.834000  15.999400
27412         HT  3735  TIP3    H1 27412   0.417000   1.008000
27413         HT  3735  TIP3    H2 27413   0.417000   1.008000
27414         OT  3736  TIP3   OH2 27414  -0.834000  15.999400
27415         HT  3736  TIP3    H1 27415   0.417000   1.008000
27416         HT  3736  TIP3    H2 27416   0.417000   1.008000
27417         OT  3737  TIP3   OH2 27417  -0.834000  15.999400
27418         HT  3737  TIP3    H1 27418   0.417000   1.008000
27419         HT  3737  TIP3    H2 27419   0.417000   1.008000
27420         OT  3738  TIP3   OH2 27420  -0.834000  15.999400
27421         HT  3738  TIP3    H1 27421   0.417000   1.008000
27422         HT  3738  TIP3    H2 27422   0.417000   1.008000
27423         OT  3739  TIP3   OH2 27423  -0.834000  15.999400
27424         HT  3739  TIP3    H1 27424   0.417000   1.008000
27425         HT  3739  TIP3    H2 27425   0.417000   1.008000
27426         OT  3740  TIP3   OH2 27426  -0.834000  15.999400
27427         HT  3740  TIP3    H1 27427   0.417000   1.008000
27428         HT  3740  TIP3    H2 27428   0.417000   1.008000
27429         OT  3741  TIP3   OH2 27429  -0.834000  15.999400
27430         HT  3741  TIP3    H1 27430   0.417000   1.008000
27431         HT  3741  TIP3    H2 27431   0.417000   1.008000
27432         OT  3742  TIP3   OH2 27432  -0.834000  15.999400
27433         HT  3742  TIP3    H1 27433   0.417000   1.008000
27434         HT  3742  TIP3    H2 27434   0.417000   1.008000
27435         OT  3743  TIP3   OH2 27435  -0.834000  15.999400
27436         HT  3743  TIP3    H1 27436   0.417000   1.008000
27437         HT  3743  TIP3    H2 27437   0.417000   1.008000
27438         OT  3744  TIP3   OH2 27438  -0.834000  15.999400
27439         HT  3744  TIP3    H1 27439   0.417000   1.008000
27440         HT  3744  TIP3    H2 27440   0.417000   1.008000
27441         OT  3745  TIP3   OH2 27441  -0.834000  15.999400
27442         HT  3745  TIP3    H1 27442   0.417000   1.008000
27443         HT  3745  TIP3    H2 27443   0.417000   1.008000
27444         OT  3746  TIP3   OH2 27444  -0.834000  15.999400
27445         HT  3746  TIP3    H1 27445   0.417000   1.008000
27446         HT  3746  TIP3    H2 27446   0.417000   1.008000
27447         OT  3747  TIP3   OH2 27447  -0.834000  15.999400
27448         HT  3747  TIP3    H1 27448   0.417000   1.008000
27449         HT  3747  TIP3    H2 27449   0.417000   1.008000
27450         OT  3748  TIP3   OH2 27450  -0.834000  15.999400
27451         HT  3748  TIP3    H1 27451   0.417000   1.008000
27452         HT  3748  TIP3    H2 27452   0.417000   1.008000
27453         OT  3749  TIP3   OH2 27453  -0.834000  15.999400
27454         HT  3749  TIP3    H1 27454   0.417000   1.008000
27455         HT  3749  TIP3    H2 27455   0.417000   1.008000
27456         OT  3750  TIP3   OH2 27456  -0.834000  15.999400
27457         HT  3750  TIP3    H1 27457   0.417000   1.008000
27458         HT  3750  TIP3    H2 27458   0.417000   1.008000
27459         OT  3751  TIP3   OH2 27459  -0.834000  15.999400
27460         HT  3751  TIP3    H1 27460   0.417000   1.008000
27461         HT  3751  TIP3    H2 27461   0.417000   1.008000
27462         OT  3752  TIP3   OH2 27462  -0.834000  15.999400
27463         HT  3752  TIP3    H1 27463   0.417000   1.008000
27464         HT  3752  TIP3    H2 27464   0.417000   1.008000
27465         OT  3753  TIP3   OH2 27465  -0.834000  15.999400
27466         HT  3753  TIP3    H1 27466   0.417000   1.008000
27467         HT  3753  TIP3    H2 27467   0.417000   1.008000
27468         OT  3754  TIP3   OH2 27468  -0.834000  15.999400
27469         HT  3754  TIP3    H1 27469   0.417000   1.008000
27470         HT  3754  TIP3    H2 27470   0.417000   1.008000
27471         OT  3755  TIP3   OH2 27471  -0.834000  15.999400
27472         HT  3755  TIP3    H1 27472   0.417000   1.008000
27473         HT  3755  TIP3    H2 27473   0.417000   1.008000
27474         OT  3756  TIP3   OH2 27474  -0.834000  15.999400
27475         HT  3756  TIP3    H1 27475   0.417000   1.008000
27476         HT  3756  TIP3    H2 27476   0.417000   1.008000
27477         OT  3757  TIP3   OH2 27477  -0.834000  15.999400
27478         HT  3757  TIP3    H1 27478   0.417000   1.008000
27479         HT  3757  TIP3    H2 27479   0.417000   1.008000
27480         OT  3758  TIP3   OH2 27480  -0.834000  15.999400
27481         HT  3758  TIP3    H1 27481   0.417000   1.008000
27482         HT  3758  TIP3    H2 27482   0.417000   1.008000
27483         OT  3759  TIP3   OH2 27483  -0.834000  15.999400
27484         HT  3759  TIP3    H1 27484   0.417000   1.008000
27485         HT  3759  TIP3    H2 27485   0.417000   1.008000
27486         OT  3760  TIP3   OH2 27486  -0.834000  15.999400
27487         HT  3760  TIP3    H1 27487   0.417000   1.008000
27488         HT  3760  TIP3    H2 27488   0.417000   1.008000
27489         OT  3761  TIP3   OH2 27489  -0.834000  15.999400
27490         HT  3761  TIP3    H1 27490   0.417000   1.008000
27491         HT  3761  TIP3    H2 27491   0.417000   1.008000
27492         OT  3762  TIP3   OH2 27492  -0.834000  15.999400
27493         HT  3762  TIP3    H1 27493   0.417000   1.008000
27494         HT  3762  TIP3    H2 27494   0.417000   1.008000
27495         OT  3763  TIP3   OH2 27495  -0.834000  15.999400
27496         HT  3763  TIP3    H1 27496   0.417000   1.008000
27497         HT  3763  TIP3    H2 27497   0.417000   1.008000
27498         OT  3764  TIP3   OH2 27498  -0.834000  15.999400
27499         HT  3764  TIP3    H1 27499   0.417000   1.008000
27500         HT  3764  TIP3    H2 27500   0.417000   1.008000
27501         OT  3765  TIP3   OH2 27501  -0.834000  15.999400
27502         HT  3765  TIP3    H1 27502   0.417000   1.008000
27503         HT  3765  TIP3    H2 27503   0.417000   1.008000
27504         OT  3766  TIP3   OH2 27504  -0.834000  15.999400
27505         HT  3766  TIP3    H1 27505   0.417000   1.008000
27506         HT  3766  TIP3    H2 27506   0.417000   1.008000
27507         OT  3767  TIP3   OH2 27507  -0.834000  15.999400
27508         HT  3767  TIP3    H1 27508   0.417000   1.008000
27509         HT  3767  TIP3    H2 27509   0.417000   1.008000
27510         OT  3768  TIP3   OH2 27510  -0.834000  15.999400
27511         HT  3768  TIP3    H1 27511   0.417000   1.008000
27512         HT  3768  TIP3    H2 27512   0.417000   1.008000
27513         OT  3769  TIP3   OH2 27513  -0.834000  15.999400
27514         HT  3769  TIP3    H1 27514   0.417000   1.008000
27515         HT  3769  TIP3    H2 27515   0.417000   1.008000
27516         OT  3770  TIP3   OH2 27516  -0.834000  15.999400
27517         HT  3770  TIP3    H1 27517   0.417000   1.008000
27518         HT  3770  TIP3    H2 27518   0.417000   1.008000
27519         OT  3771  TIP3   OH2 27519  -0.834000  15.999400
27520         HT  3771  TIP3    H1 27520   0.417000   1.008000
27521         HT  3771  TIP3    H2 27521   0.417000   1.008000
27522         OT  3772  TIP3   OH2 27522  -0.834000  15.999400
27523         HT  3772  TIP3    H1 27523   0.417000   1.008000
27524         HT  3772  TIP3    H2 27524   0.417000   1.008000
27525         OT  3773  TIP3   OH2 27525  -0.834000  15.999400
27526         HT  3773  TIP3    H1 27526   0.417000   1.008000
27527         HT  3773  TIP3    H2 27527   0.417000   1.008000
27528         OT  3774  TIP3   OH2 27528  -0.834000  15.999400
27529         HT  3774  TIP3    H1 27529   0.417000   1.008000
27530         HT  3774  TIP3    H2 27530   0.417000   1.008000
27531         OT  3775  TIP3   OH2 27531  -0.834000  15.999400
27532         HT  3775  TIP3    H1 27532   0.417000   1.008000
27533         HT  3775  TIP3    H2 27533   0.417000   1.008000
27534         OT  3776  TIP3   OH2 27534  -0.834000  15.999400
27535         HT  3776  TIP3    H1 27535   0.417000   1.008000
27536         HT  3776  TIP3    H2 27536   0.417000   1.008000
27537         OT  3777  TIP3   OH2 27537  -0.834000  15.999400
27538         HT  3777  TIP3    H1 27538   0.417000   1.008000
27539         HT  3777  TIP3    H2 27539   0.417000   1.008000
27540         OT  3778  TIP3   OH2 27540  -0.834000  15.999400
27541         HT  3778  TIP3    H1 27541   0.417000   1.008000
27542         HT  3778  TIP3    H2 27542   0.417000   1.008000
27543         OT  3779  TIP3   OH2 27543  -0.834000  15.999400
27544         HT  3779  TIP3    H1 27544   0.417000   1.008000
27545         HT  3779  TIP3    H2 27545   0.417000   1.008000
27546         OT  3780  TIP3   OH2 27546  -0.834000  15.999400
27547         HT  3780  TIP3    H1 27547   0.417000   1.008000
27548         HT  3780  TIP3    H2 27548   0.417000   1.008000
27549         OT  3781  TIP3   OH2 27549  -0.834000  15.999400
27550         HT  3781  TIP3    H1 27550   0.417000   1.008000
27551         HT  3781  TIP3    H2 27551   0.417000   1.008000
27552         OT  3782  TIP3   OH2 27552  -0.834000  15.999400
27553         HT  3782  TIP3    H1 27553   0.417000   1.008000
27554         HT  3782  TIP3    H2 27554   0.417000   1.008000
27555         OT  3783  TIP3   OH2 27555  -0.834000  15.999400
27556         HT  3783  TIP3    H1 27556   0.417000   1.008000
27557         HT  3783  TIP3    H2 27557   0.417000   1.008000
27558         OT  3784  TIP3   OH2 27558  -0.834000  15.999400
27559         HT  3784  TIP3    H1 27559   0.417000   1.008000
27560         HT  3784  TIP3    H2 27560   0.417000   1.008000
27561         OT  3785  TIP3   OH2 27561  -0.834000  15.999400
27562         HT  3785  TIP3    H1 27562   0.417000   1.008000
27563         HT  3785  TIP3    H2 27563   0.417000   1.008000
27564         OT  3786  TIP3   OH2 27564  -0.834000  15.999400
27565         HT  3786  TIP3    H1 27565   0.417000   1.008000
27566         HT  3786  TIP3    H2 27566   0.417000   1.008000
27567         OT  3787  TIP3   OH2 27567  -0.834000  15.999400
27568         HT  3787  TIP3    H1 27568   0.417000   1.008000
27569         HT  3787  TIP3    H2 27569   0.417000   1.008000
27570         OT  3788  TIP3   OH2 27570  -0.834000  15.999400
27571         HT  3788  TIP3    H1 27571   0.417000   1.008000
27572         HT  3788  TIP3    H2 27572   0.417000   1.008000
27573         OT  3789  TIP3   OH2 27573  -0.834000  15.999400
27574         HT  3789  TIP3    H1 27574   0.417000   1.008000
27575         HT  3789  TIP3    H2 27575   0.417000   1.008000
27576         OT  3790  TIP3   OH2 27576  -0.834000  15.999400
27577         HT  3790  TIP3    H1 27577   0.417000   1.008000
27578         HT  3790  TIP3    H2 27578   0.417000   1.008000
27579         OT  3791  TIP3   OH2 27579  -0.834000  15.999400
27580         HT  3791  TIP3    H1 27580   0.417000   1.008000
27581         HT  3791  TIP3    H2 27581   0.417000   1.008000
27582         OT  3792  TIP3   OH2 27582  -0.834000  15.999400
27583         HT  3792  TIP3    H1 27583   0.417000   1.008000
27584         HT  3792  TIP3    H2 27584   0.417000   1.008000
27585         OT  3793  TIP3   OH2 27585  -0.834000  15.999400
27586         HT  3793  TIP3    H1 27586   0.417000   1.008000
27587         HT  3793  TIP3    H2 27587   0.417000   1.008000
27588         OT  3794  TIP3   OH2 27588  -0.834000  15.999400
27589         HT  3794  TIP3    H1 27589   0.417000   1.008000
27590         HT  3794  TIP3    H2 27590   0.417000   1.008000
27591         OT  3795  TIP3   OH2 27591  -0.834000  15.999400
27592         HT  3795  TIP3    H1 27592   0.417000   1.008000
27593         HT  3795  TIP3    H2 27593   0.417000   1.008000
27594         OT  3796  TIP3   OH2 27594  -0.834000  15.999400
27595         HT  3796  TIP3    H1 27595   0.417000   1.008000
27596         HT  3796  TIP3    H2 27596   0.417000   1.008000
27597         OT  3797  TIP3   OH2 27597  -0.834000  15.999400
27598         HT  3797  TIP3    H1 27598   0.417000   1.008000
27599         HT  3797  TIP3    H2 27599   0.417000   1.008000
27600         OT  3798  TIP3   OH2 27600  -0.834000  15.999400
27601         HT  3798  TIP3    H1 27601   0.417000   1.008000
27602         HT  3798  TIP3    H2 27602   0.417000   1.008000
27603         OT  3799  TIP3   OH2 27603  -0.834000  15.999400
27604         HT  3799  TIP3    H1 27604   0.417000   1.008000
27605         HT  3799  TIP3    H2 27605   0.417000   1.008000
27606         OT  3800  TIP3   OH2 27606  -0.834000  15.999400
27607         HT  3800  TIP3    H1 27607   0.417000   1.008000
27608         HT  3800  TIP3    H2 27608   0.417000   1.008000
27609         OT  3801  TIP3   OH2 27609  -0.834000  15.999400
27610         HT  3801  TIP3    H1 27610   0.417000   1.008000
27611         HT  3801  TIP3    H2 27611   0.417000   1.008000
27612         OT  3802  TIP3   OH2 27612  -0.834000  15.999400
27613         HT  3802  TIP3    H1 27613   0.417000   1.008000
27614         HT  3802  TIP3    H2 27614   0.417000   1.008000
27615         OT  3803  TIP3   OH2 27615  -0.834000  15.999400
27616         HT  3803  TIP3    H1 27616   0.417000   1.008000
27617         HT  3803  TIP3    H2 27617   0.417000   1.008000
27618         OT  3804  TIP3   OH2 27618  -0.834000  15.999400
27619         HT  3804  TIP3    H1 27619   0.417000   1.008000
27620         HT  3804  TIP3    H2 27620   0.417000   1.008000
27621         OT  3805  TIP3   OH2 27621  -0.834000  15.999400
27622         HT  3805  TIP3    H1 27622   0.417000   1.008000
27623         HT  3805  TIP3    H2 27623   0.417000   1.008000
27624         OT  3806  TIP3   OH2 27624  -0.834000  15.999400
27625         HT  3806  TIP3    H1 27625   0.417000   1.008000
27626         HT  3806  TIP3    H2 27626   0.417000   1.008000
27627         OT  3807  TIP3   OH2 27627  -0.834000  15.999400
27628         HT  3807  TIP3    H1 27628   0.417000   1.008000
27629         HT  3807  TIP3    H2 27629   0.417000   1.008000
27630         OT  3808  TIP3   OH2 27630  -0.834000  15.999400
27631         HT  3808  TIP3    H1 27631   0.417000   1.008000
27632         HT  3808  TIP3    H2 27632   0.417000   1.008000
27633         OT  3809  TIP3   OH2 27633  -0.834000  15.999400
27634         HT  3809  TIP3    H1 27634   0.417000   1.008000
27635         HT  3809  TIP3    H2 27635   0.417000   1.008000
27636         OT  3810  TIP3   OH2 27636  -0.834000  15.999400
27637         HT  3810  TIP3    H1 27637   0.417000   1.008000
27638         HT  3810  TIP3    H2 27638   0.417000   1.008000
27639         OT  3811  TIP3   OH2 27639  -0.834000  15.999400
27640         HT  3811  TIP3    H1 27640   0.417000   1.008000
27641         HT  3811  TIP3    H2 27641   0.417000   1.008000
27642         OT  3812  TIP3   OH2 27642  -0.834000  15.999400
27643         HT  3812  TIP3    H1 27643   0.417000   1.008000
27644         HT  3812  TIP3    H2 27644   0.417000   1.008000
27645         OT  3813  TIP3   OH2 27645  -0.834000  15.999400
27646         HT  3813  TIP3    H1 27646   0.417000   1.008000
27647         HT  3813  TIP3    H2 27647   0.417000   1.008000
27648         OT  3814  TIP3   OH2 27648  -0.834000  15.999400
27649         HT  3814  TIP3    H1 27649   0.417000   1.008000
27650         HT  3814  TIP3    H2 27650   0.417000   1.008000
27651         OT  3815  TIP3   OH2 27651  -0.834000  15.999400
27652         HT  3815  TIP3    H1 27652   0.417000   1.008000
27653         HT  3815  TIP3    H2 27653   0.417000   1.008000
27654         OT  3816  TIP3   OH2 27654  -0.834000  15.999400
27655         HT  3816  TIP3    H1 27655   0.417000   1.008000
27656         HT  3816  TIP3    H2 27656   0.417000   1.008000
27657         OT  3817  TIP3   OH2 27657  -0.834000  15.999400
27658         HT  3817  TIP3    H1 27658   0.417000   1.008000
27659         HT  3817  TIP3    H2 27659   0.417000   1.008000
27660         OT  3818  TIP3   OH2 27660  -0.834000  15.999400
27661         HT  3818  TIP3    H1 27661   0.417000   1.008000
27662         HT  3818  TIP3    H2 27662   0.417000   1.008000
27663         OT  3819  TIP3   OH2 27663  -0.834000  15.999400
27664         HT  3819  TIP3    H1 27664   0.417000   1.008000
27665         HT  3819  TIP3    H2 27665   0.417000   1.008000
27666         OT  3820  TIP3   OH2 27666  -0.834000  15.999400
27667         HT  3820  TIP3    H1 27667   0.417000   1.008000
27668         HT  3820  TIP3    H2 27668   0.417000   1.008000
27669         OT  3821  TIP3   OH2 27669  -0.834000  15.999400
27670         HT  3821  TIP3    H1 27670   0.417000   1.008000
27671         HT  3821  TIP3    H2 27671   0.417000   1.008000
27672         OT  3822  TIP3   OH2 27672  -0.834000  15.999400
27673         HT  3822  TIP3    H1 27673   0.417000   1.008000
27674         HT  3822  TIP3    H2 27674   0.417000   1.008000
27675         OT  3823  TIP3   OH2 27675  -0.834000  15.999400
27676         HT  3823  TIP3    H1 27676   0.417000   1.008000
27677         HT  3823  TIP3    H2 27677   0.417000   1.008000
27678         OT  3824  TIP3   OH2 27678  -0.834000  15.999400
27679         HT  3824  TIP3    H1 27679   0.417000   1.008000
27680         HT  3824  TIP3    H2 27680   0.417000   1.008000
27681         OT  3825  TIP3   OH2 27681  -0.834000  15.999400
27682         HT  3825  TIP3    H1 27682   0.417000   1.008000
27683         HT  3825  TIP3    H2 27683   0.417000   1.008000
27684         OT  3826  TIP3   OH2 27684  -0.834000  15.999400
27685         HT  3826  TIP3    H1 27685   0.417000   1.008000
27686         HT  3826  TIP3    H2 27686   0.417000   1.008000
27687         OT  3827  TIP3   OH2 27687  -0.834000  15.999400
27688         HT  3827  TIP3    H1 27688   0.417000   1.008000
27689         HT  3827  TIP3    H2 27689   0.417000   1.008000
27690         OT  3828  TIP3   OH2 27690  -0.834000  15.999400
27691         HT  3828  TIP3    H1 27691   0.417000   1.008000
27692         HT  3828  TIP3    H2 27692   0.417000   1.008000
27693         OT  3829  TIP3   OH2 27693  -0.834000  15.999400
27694         HT  3829  TIP3    H1 27694   0.417000   1.008000
27695         HT  3829  TIP3    H2 27695   0.417000   1.008000
27696         OT  3830  TIP3   OH2 27696  -0.834000  15.999400
27697         HT  3830  TIP3    H1 27697   0.417000   1.008000
27698         HT  3830  TIP3    H2 27698   0.417000   1.008000
27699         OT  3831  TIP3   OH2 27699  -0.834000  15.999400
27700         HT  3831  TIP3    H1 27700   0.417000   1.008000
27701         HT  3831  TIP3    H2 27701   0.417000   1.008000
27702         OT  3832  TIP3   OH2 27702  -0.834000  15.999400
27703         HT  3832  TIP3    H1 27703   0.417000   1.008000
27704         HT  3832  TIP3    H2 27704   0.417000   1.008000
27705         OT  3833  TIP3   OH2 27705  -0.834000  15.999400
27706         HT  3833  TIP3    H1 27706   0.417000   1.008000
27707         HT  3833  TIP3    H2 27707   0.417000   1.008000
27708         OT  3834  TIP3   OH2 27708  -0.834000  15.999400
27709         HT  3834  TIP3    H1 27709   0.417000   1.008000
27710         HT  3834  TIP3    H2 27710   0.417000   1.008000
27711         OT  3835  TIP3   OH2 27711  -0.834000  15.999400
27712         HT  3835  TIP3    H1 27712   0.417000   1.008000
27713         HT  3835  TIP3    H2 27713   0.417000   1.008000
27714         OT  3836  TIP3   OH2 27714  -0.834000  15.999400
27715         HT  3836  TIP3    H1 27715   0.417000   1.008000
27716         HT  3836  TIP3    H2 27716   0.417000   1.008000
27717         OT  3837  TIP3   OH2 27717  -0.834000  15.999400
27718         HT  3837  TIP3    H1 27718   0.417000   1.008000
27719         HT  3837  TIP3    H2 27719   0.417000   1.008000
27720         OT  3838  TIP3   OH2 27720  -0.834000  15.999400
27721         HT  3838  TIP3    H1 27721   0.417000   1.008000
27722         HT  3838  TIP3    H2 27722   0.417000   1.008000
27723         OT  3839  TIP3   OH2 27723  -0.834000  15.999400
27724         HT  3839  TIP3    H1 27724   0.417000   1.008000
27725         HT  3839  TIP3    H2 27725   0.417000   1.008000
27726         OT  3840  TIP3   OH2 27726  -0.834000  15.999400
27727         HT  3840  TIP3    H1 27727   0.417000   1.008000
27728         HT  3840  TIP3    H2 27728   0.417000   1.008000
27729         OT  3841  TIP3   OH2 27729  -0.834000  15.999400
27730         HT  3841  TIP3    H1 27730   0.417000   1.008000
27731         HT  3841  TIP3    H2 27731   0.417000   1.008000
27732         OT  3842  TIP3   OH2 27732  -0.834000  15.999400
27733         HT  3842  TIP3    H1 27733   0.417000   1.008000
27734         HT  3842  TIP3    H2 27734   0.417000   1.008000
27735         OT  3843  TIP3   OH2 27735  -0.834000  15.999400
27736         HT  3843  TIP3    H1 27736   0.417000   1.008000
27737         HT  3843  TIP3    H2 27737   0.417000   1.008000
27738         OT  3844  TIP3   OH2 27738  -0.834000  15.999400
27739         HT  3844  TIP3    H1 27739   0.417000   1.008000
27740         HT  3844  TIP3    H2 27740   0.417000   1.008000
27741         OT  3845  TIP3   OH2 27741  -0.834000  15.999400
27742         HT  3845  TIP3    H1 27742   0.417000   1.008000
27743         HT  3845  TIP3    H2 27743   0.417000   1.008000
27744         OT  3846  TIP3   OH2 27744  -0.834000  15.999400
27745         HT  3846  TIP3    H1 27745   0.417000   1.008000
27746         HT  3846  TIP3    H2 27746   0.417000   1.008000
27747         OT  3847  TIP3   OH2 27747  -0.834000  15.999400
27748         HT  3847  TIP3    H1 27748   0.417000   1.008000
27749         HT  3847  TIP3    H2 27749   0.417000   1.008000
27750         OT  3848  TIP3   OH2 27750  -0.834000  15.999400
27751         HT  3848  TIP3    H1 27751   0.417000   1.008000
27752         HT  3848  TIP3    H2 27752   0.417000   1.008000
27753         OT  3849  TIP3   OH2 27753  -0.834000  15.999400
27754         HT  3849  TIP3    H1 27754   0.417000   1.008000
27755         HT  3849  TIP3    H2 27755   0.417000   1.008000
27756         OT  3850  TIP3   OH2 27756  -0.834000  15.999400
27757         HT  3850  TIP3    H1 27757   0.417000   1.008000
27758         HT  3850  TIP3    H2 27758   0.417000   1.008000
27759         OT  3851  TIP3   OH2 27759  -0.834000  15.999400
27760         HT  3851  TIP3    H1 27760   0.417000   1.008000
27761         HT  3851  TIP3    H2 27761   0.417000   1.008000
27762         OT  3852  TIP3   OH2 27762  -0.834000  15.999400
27763         HT  3852  TIP3    H1 27763   0.417000   1.008000
27764         HT  3852  TIP3    H2 27764   0.417000   1.008000
27765         OT  3853  TIP3   OH2 27765  -0.834000  15.999400
27766         HT  3853  TIP3    H1 27766   0.417000   1.008000
27767         HT  3853  TIP3    H2 27767   0.417000   1.008000
27768         OT  3854  TIP3   OH2 27768  -0.834000  15.999400
27769         HT  3854  TIP3    H1 27769   0.417000   1.008000
27770         HT  3854  TIP3    H2 27770   0.417000   1.008000
27771         OT  3855  TIP3   OH2 27771  -0.834000  15.999400
27772         HT  3855  TIP3    H1 27772   0.417000   1.008000
27773         HT  3855  TIP3    H2 27773   0.417000   1.008000
27774         OT  3856  TIP3   OH2 27774  -0.834000  15.999400
27775         HT  3856  TIP3    H1 27775   0.417000   1.008000
27776         HT  3856  TIP3    H2 27776   0.417000   1.008000
27777         OT  3857  TIP3   OH2 27777  -0.834000  15.999400
27778         HT  3857  TIP3    H1 27778   0.417000   1.008000
27779         HT  3857  TIP3    H2 27779   0.417000   1.008000
27780         OT  3858  TIP3   OH2 27780  -0.834000  15.999400
27781         HT  3858  TIP3    H1 27781   0.417000   1.008000
27782         HT  3858  TIP3    H2 27782   0.417000   1.008000
27783         OT  3859  TIP3   OH2 27783  -0.834000  15.999400
27784         HT  3859  TIP3    H1 27784   0.417000   1.008000
27785         HT  3859  TIP3    H2 27785   0.417000   1.008000
27786         OT  3860  TIP3   OH2 27786  -0.834000  15.999400
27787         HT  3860  TIP3    H1 27787   0.417000   1.008000
27788         HT  3860  TIP3    H2 27788   0.417000   1.008000
27789         OT  3861  TIP3   OH2 27789  -0.834000  15.999400
27790         HT  3861  TIP3    H1 27790   0.417000   1.008000
27791         HT  3861  TIP3    H2 27791   0.417000   1.008000
27792         OT  3862  TIP3   OH2 27792  -0.834000  15.999400
27793         HT  3862  TIP3    H1 27793   0.417000   1.008000
27794         HT  3862  TIP3    H2 27794   0.417000   1.008000
27795         OT  3863  TIP3   OH2 27795  -0.834000  15.999400
27796         HT  3863  TIP3    H1 27796   0.417000   1.008000
27797         HT  3863  TIP3    H2 27797   0.417000   1.008000
27798         OT  3864  TIP3   OH2 27798  -0.834000  15.999400
27799         HT  3864  TIP3    H1 27799   0.417000   1.008000
27800         HT  3864  TIP3    H2 27800   0.417000   1.008000
27801         OT  3865  TIP3   OH2 27801  -0.834000  15.999400
27802         HT  3865  TIP3    H1 27802   0.417000   1.008000
27803         HT  3865  TIP3    H2 27803   0.417000   1.008000
27804         OT  3866  TIP3   OH2 27804  -0.834000  15.999400
27805         HT  3866  TIP3    H1 27805   0.417000   1.008000
27806         HT  3866  TIP3    H2 27806   0.417000   1.008000
27807         OT  3867  TIP3   OH2 27807  -0.834000  15.999400
27808         HT  3867  TIP3    H1 27808   0.417000   1.008000
27809         HT  3867  TIP3    H2 27809   0.417000   1.008000
27810         OT  3868  TIP3   OH2 27810  -0.834000  15.999400
27811         HT  3868  TIP3    H1 27811   0.417000   1.008000
27812         HT  3868  TIP3    H2 27812   0.417000   1.008000
27813         OT  3869  TIP3   OH2 27813  -0.834000  15.999400
27814         HT  3869  TIP3    H1 27814   0.417000   1.008000
27815         HT  3869  TIP3    H2 27815   0.417000   1.008000
27816         OT  3870  TIP3   OH2 27816  -0.834000  15.999400
27817         HT  3870  TIP3    H1 27817   0.417000   1.008000
27818         HT  3870  TIP3    H2 27818   0.417000   1.008000
27819         OT  3871  TIP3   OH2 27819  -0.834000  15.999400
27820         HT  3871  TIP3    H1 27820   0.417000   1.008000
27821         HT  3871  TIP3    H2 27821   0.417000   1.008000
27822         OT  3872  TIP3   OH2 27822  -0.834000  15.999400
27823         HT  3872  TIP3    H1 27823   0.417000   1.008000
27824         HT  3872  TIP3    H2 27824   0.417000   1.008000
27825         OT  3873  TIP3   OH2 27825  -0.834000  15.999400
27826         HT  3873  TIP3    H1 27826   0.417000   1.008000
27827         HT  3873  TIP3    H2 27827   0.417000   1.008000
27828         OT  3874  TIP3   OH2 27828  -0.834000  15.999400
27829         HT  3874  TIP3    H1 27829   0.417000   1.008000
27830         HT  3874  TIP3    H2 27830   0.417000   1.008000
27831         OT  3875  TIP3   OH2 27831  -0.834000  15.999400
27832         HT  3875  TIP3    H1 27832   0.417000   1.008000
27833         HT  3875  TIP3    H2 27833   0.417000   1.008000
27834         OT  3876  TIP3   OH2 27834  -0.834000  15.999400
27835         HT  3876  TIP3    H1 27835   0.417000   1.008000
27836         HT  3876  TIP3    H2 27836   0.417000   1.008000
27837         OT  3877  TIP3   OH2 27837  -0.834000  15.999400
27838         HT  3877  TIP3    H1 27838   0.417000   1.008000
27839         HT  3877  TIP3    H2 27839   0.417000   1.008000
27840         OT  3878  TIP3   OH2 27840  -0.834000  15.999400
27841         HT  3878  TIP3    H1 27841   0.417000   1.008000
27842         HT  3878  TIP3    H2 27842   0.417000   1.008000
27843         OT  3879  TIP3   OH2 27843  -0.834000  15.999400
27844         HT  3879  TIP3    H1 27844   0.417000   1.008000
27845         HT  3879  TIP3    H2 27845   0.417000   1.008000
27846         OT  3880  TIP3   OH2 27846  -0.834000  15.999400
27847         HT  3880  TIP3    H1 27847   0.417000   1.008000
27848         HT  3880  TIP3    H2 27848   0.417000   1.008000
27849         OT  3881  TIP3   OH2 27849  -0.834000  15.999400
27850         HT  3881  TIP3    H1 27850   0.417000   1.008000
27851         HT  3881  TIP3    H2 27851   0.417000   1.008000
27852         OT  3882  TIP3   OH2 27852  -0.834000  15.999400
27853         HT  3882  TIP3    H1 27853   0.417000   1.008000
27854         HT  3882  TIP3    H2 27854   0.417000   1.008000
27855         OT  3883  TIP3   OH2 27855  -0.834000  15.999400
27856         HT  3883  TIP3    H1 27856   0.417000   1.008000
27857         HT  3883  TIP3    H2 27857   0.417000   1.008000
27858         OT  3884  TIP3   OH2 27858  -0.834000  15.999400
27859         HT  3884  TIP3    H1 27859   0.417000   1.008000
27860         HT  3884  TIP3    H2 27860   0.417000   1.008000
27861         OT  3885  TIP3   OH2 27861  -0.834000  15.999400
27862         HT  3885  TIP3    H1 27862   0.417000   1.008000
27863         HT  3885  TIP3    H2 27863   0.417000   1.008000
27864         OT  3886  TIP3   OH2 27864  -0.834000  15.999400
27865         HT  3886  TIP3    H1 27865   0.417000   1.008000
27866         HT  3886  TIP3    H2 27866   0.417000   1.008000
27867         OT  3887  TIP3   OH2 27867  -0.834000  15.999400
27868         HT  3887  TIP3    H1 27868   0.417000   1.008000
27869         HT  3887  TIP3    H2 27869   0.417000   1.008000
27870         OT  3888  TIP3   OH2 27870  -0.834000  15.999400
27871         HT  3888  TIP3    H1 27871   0.417000   1.008000
27872         HT  3888  TIP3    H2 27872   0.417000   1.008000
27873         OT  3889  TIP3   OH2 27873  -0.834000  15.999400
27874         HT  3889  TIP3    H1 27874   0.417000   1.008000
27875         HT  3889  TIP3    H2 27875   0.417000   1.008000
27876         OT  3890  TIP3   OH2 27876  -0.834000  15.999400
27877         HT  3890  TIP3    H1 27877   0.417000   1.008000
27878         HT  3890  TIP3    H2 27878   0.417000   1.008000
27879         OT  3891  TIP3   OH2 27879  -0.834000  15.999400
27880         HT  3891  TIP3    H1 27880   0.417000   1.008000
27881         HT  3891  TIP3    H2 27881   0.417000   1.008000
27882         OT  3892  TIP3   OH2 27882  -0.834000  15.999400
27883         HT  3892  TIP3    H1 27883   0.417000   1.008000
27884         HT  3892  TIP3    H2 27884   0.417000   1.008000
27885         OT  3893  TIP3   OH2 27885  -0.834000  15.999400
27886         HT  3893  TIP3    H1 27886   0.417000   1.008000
27887         HT  3893  TIP3    H2 27887   0.417000   1.008000
27888         OT  3894  TIP3   OH2 27888  -0.834000  15.999400
27889         HT  3894  TIP3    H1 27889   0.417000   1.008000
27890         HT  3894  TIP3    H2 27890   0.417000   1.008000
27891         OT  3895  TIP3   OH2 27891  -0.834000  15.999400
27892         HT  3895  TIP3    H1 27892   0.417000   1.008000
27893         HT  3895  TIP3    H2 27893   0.417000   1.008000
27894         OT  3896  TIP3   OH2 27894  -0.834000  15.999400
27895         HT  3896  TIP3    H1 27895   0.417000   1.008000
27896         HT  3896  TIP3    H2 27896   0.417000   1.008000
27897         OT  3897  TIP3   OH2 27897  -0.834000  15.999400
27898         HT  3897  TIP3    H1 27898   0.417000   1.008000
27899         HT  3897  TIP3    H2 27899   0.417000   1.008000
27900         OT  3898  TIP3   OH2 27900  -0.834000  15.999400
27901         HT  3898  TIP3    H1 27901   0.417000   1.008000
27902         HT  3898  TIP3    H2 27902   0.417000   1.008000
27903         OT  3899  TIP3   OH2 27903  -0.834000  15.999400
27904         HT  3899  TIP3    H1 27904   0.417000   1.008000
27905         HT  3899  TIP3    H2 27905   0.417000   1.008000
27906         OT  3900  TIP3   OH2 27906  -0.834000  15.999400
27907         HT  3900  TIP3    H1 27907   0.417000   1.008000
27908         HT  3900  TIP3    H2 27908   0.417000   1.008000
27909         OT  3901  TIP3   OH2 27909  -0.834000  15.999400
27910         HT  3901  TIP3    H1 27910   0.417000   1.008000
27911         HT  3901  TIP3    H2 27911   0.417000   1.008000
27912         OT  3902  TIP3   OH2 27912  -0.834000  15.999400
27913         HT  3902  TIP3    H1 27913   0.417000   1.008000
27914         HT  3902  TIP3    H2 27914   0.417000   1.008000
27915         OT  3903  TIP3   OH2 27915  -0.834000  15.999400
27916         HT  3903  TIP3    H1 27916   0.417000   1.008000
27917         HT  3903  TIP3    H2 27917   0.417000   1.008000
27918         OT  3904  TIP3   OH2 27918  -0.834000  15.999400
27919         HT  3904  TIP3    H1 27919   0.417000   1.008000
27920         HT  3904  TIP3    H2 27920   0.417000   1.008000
27921         OT  3905  TIP3   OH2 27921  -0.834000  15.999400
27922         HT  3905  TIP3    H1 27922   0.417000   1.008000
27923         HT  3905  TIP3    H2 27923   0.417000   1.008000
27924         OT  3906  TIP3   OH2 27924  -0.834000  15.999400
27925         HT  3906  TIP3    H1 27925   0.417000   1.008000
27926         HT  3906  TIP3    H2 27926   0.417000   1.008000
27927         OT  3907  TIP3   OH2 27927  -0.834000  15.999400
27928         HT  3907  TIP3    H1 27928   0.417000   1.008000
27929         HT  3907  TIP3    H2 27929   0.417000   1.008000
27930         OT  3908  TIP3   OH2 27930  -0.834000  15.999400
27931         HT  3908  TIP3    H1 27931   0.417000   1.008000
27932         HT  3908  TIP3    H2 27932   0.417000   1.008000
27933         OT  3909  TIP3   OH2 27933  -0.834000  15.999400
27934         HT  3909  TIP3    H1 27934   0.417000   1.008000
27935         HT  3909  TIP3    H2 27935   0.417000   1.008000
27936         OT  3910  TIP3   OH2 27936  -0.834000  15.999400
27937         HT  3910  TIP3    H1 27937   0.417000   1.008000
27938         HT  3910  TIP3    H2 27938   0.417000   1.008000
27939         OT  3911  TIP3   OH2 27939  -0.834000  15.999400
27940         HT  3911  TIP3    H1 27940   0.417000   1.008000
27941         HT  3911  TIP3    H2 27941   0.417000   1.008000
27942         OT  3912  TIP3   OH2 27942  -0.834000  15.999400
27943         HT  3912  TIP3    H1 27943   0.417000   1.008000
27944         HT  3912  TIP3    H2 27944   0.417000   1.008000
27945         OT  3913  TIP3   OH2 27945  -0.834000  15.999400
27946         HT  3913  TIP3    H1 27946   0.417000   1.008000
27947         HT  3913  TIP3    H2 27947   0.417000   1.008000
27948         OT  3914  TIP3   OH2 27948  -0.834000  15.999400
27949         HT  3914  TIP3    H1 27949   0.417000   1.008000
27950         HT  3914  TIP3    H2 27950   0.417000   1.008000
27951         OT  3915  TIP3   OH2 27951  -0.834000  15.999400
27952         HT  3915  TIP3    H1 27952   0.417000   1.008000
27953         HT  3915  TIP3    H2 27953   0.417000   1.008000
27954         OT  3916  TIP3   OH2 27954  -0.834000  15.999400
27955         HT  3916  TIP3    H1 27955   0.417000   1.008000
27956         HT  3916  TIP3    H2 27956   0.417000   1.008000
27957         OT  3917  TIP3   OH2 27957  -0.834000  15.999400
27958         HT  3917  TIP3    H1 27958   0.417000   1.008000
27959         HT  3917  TIP3    H2 27959   0.417000   1.008000
27960         OT  3918  TIP3   OH2 27960  -0.834000  15.999400
27961         HT  3918  TIP3    H1 27961   0.417000   1.008000
27962         HT  3918  TIP3    H2 27962   0.417000   1.008000
27963         OT  3919  TIP3   OH2 27963  -0.834000  15.999400
27964         HT  3919  TIP3    H1 27964   0.417000   1.008000
27965         HT  3919  TIP3    H2 27965   0.417000   1.008000
27966         OT  3920  TIP3   OH2 27966  -0.834000  15.999400
27967         HT  3920  TIP3    H1 27967   0.417000   1.008000
27968         HT  3920  TIP3    H2 27968   0.417000   1.008000
27969         OT  3921  TIP3   OH2 27969  -0.834000  15.999400
27970         HT  3921  TIP3    H1 27970   0.417000   1.008000
27971         HT  3921  TIP3    H2 27971   0.417000   1.008000
27972         OT  3922  TIP3   OH2 27972  -0.834000  15.999400
27973         HT  3922  TIP3    H1 27973   0.417000   1.008000
27974         HT  3922  TIP3    H2 27974   0.417000   1.008000
27975         OT  3923  TIP3   OH2 27975  -0.834000  15.999400
27976         HT  3923  TIP3    H1 27976   0.417000   1.008000
27977         HT  3923  TIP3    H2 27977   0.417000   1.008000
27978         OT  3924  TIP3   OH2 27978  -0.834000  15.999400
27979         HT  3924  TIP3    H1 27979   0.417000   1.008000
27980         HT  3924  TIP3    H2 27980   0.417000   1.008000
27981         OT  3925  TIP3   OH2 27981  -0.834000  15.999400
27982         HT  3925  TIP3    H1 27982   0.417000   1.008000
27983         HT  3925  TIP3    H2 27983   0.417000   1.008000
27984         OT  3926  TIP3   OH2 27984  -0.834000  15.999400
27985         HT  3926  TIP3    H1 27985   0.417000   1.008000
27986         HT  3926  TIP3    H2 27986   0.417000   1.008000
27987         OT  3927  TIP3   OH2 27987  -0.834000  15.999400
27988         HT  3927  TIP3    H1 27988   0.417000   1.008000
27989         HT  3927  TIP3    H2 27989   0.417000   1.008000
27990         OT  3928  TIP3   OH2 27990  -0.834000  15.999400
27991         HT  3928  TIP3    H1 27991   0.417000   1.008000
27992         HT  3928  TIP3    H2 27992   0.417000   1.008000
27993         OT  3929  TIP3   OH2 27993  -0.834000  15.999400
27994         HT  3929  TIP3    H1 27994   0.417000   1.008000
27995         HT  3929  TIP3    H2 27995   0.417000   1.008000
27996         OT  3930  TIP3   OH2 27996  -0.834000  15.999400
27997         HT  3930  TIP3    H1 27997   0.417000   1.008000
27998         HT  3930  TIP3    H2 27998   0.417000   1.008000
27999         OT  3931  TIP3   OH2 27999  -0.834000  15.999400
28000         HT  3931  TIP3    H1 28000   0.417000   1.008000
28001         HT  3931  TIP3    H2 28001   0.417000   1.008000
28002         OT  3932  TIP3   OH2 28002  -0.834000  15.999400
28003         HT  3932  TIP3    H1 28003   0.417000   1.008000
28004         HT  3932  TIP3    H2 28004   0.417000   1.008000
28005         OT  3933  TIP3   OH2 28005  -0.834000  15.999400
28006         HT  3933  TIP3    H1 28006   0.417000   1.008000
28007         HT  3933  TIP3    H2 28007   0.417000   1.008000
28008         OT  3934  TIP3   OH2 28008  -0.834000  15.999400
28009         HT  3934  TIP3    H1 28009   0.417000   1.008000
28010         HT  3934  TIP3    H2 28010   0.417000   1.008000
28011         OT  3935  TIP3   OH2 28011  -0.834000  15.999400
28012         HT  3935  TIP3    H1 28012   0.417000   1.008000
28013         HT  3935  TIP3    H2 28013   0.417000   1.008000
28014         OT  3936  TIP3   OH2 28014  -0.834000  15.999400
28015         HT  3936  TIP3    H1 28015   0.417000   1.008000
28016         HT  3936  TIP3    H2 28016   0.417000   1.008000
28017         OT  3937  TIP3   OH2 28017  -0.834000  15.999400
28018         HT  3937  TIP3    H1 28018   0.417000   1.008000
28019         HT  3937  TIP3    H2 28019   0.417000   1.008000
28020         OT  3938  TIP3   OH2 28020  -0.834000  15.999400
28021         HT  3938  TIP3    H1 28021   0.417000   1.008000
28022         HT  3938  TIP3    H2 28022   0.417000   1.008000
28023         OT  3939  TIP3   OH2 28023  -0.834000  15.999400
28024         HT  3939  TIP3    H1 28024   0.417000   1.008000
28025         HT  3939  TIP3    H2 28025   0.417000   1.008000
28026         OT  3940  TIP3   OH2 28026  -0.834000  15.999400
28027         HT  3940  TIP3    H1 28027   0.417000   1.008000
28028         HT  3940  TIP3    H2 28028   0.417000   1.008000
28029         OT  3941  TIP3   OH2 28029  -0.834000  15.999400
28030         HT  3941  TIP3    H1 28030   0.417000   1.008000
28031         HT  3941  TIP3    H2 28031   0.417000   1.008000
28032         OT  3942  TIP3   OH2 28032  -0.834000  15.999400
28033         HT  3942  TIP3    H1 28033   0.417000   1.008000
28034         HT  3942  TIP3    H2 28034   0.417000   1.008000
28035         OT  3943  TIP3   OH2 28035  -0.834000  15.999400
28036         HT  3943  TIP3    H1 28036   0.417000   1.008000
28037         HT  3943  TIP3    H2 28037   0.417000   1.008000
28038         OT  3944  TIP3   OH2 28038  -0.834000  15.999400
28039         HT  3944  TIP3    H1 28039   0.417000   1.008000
28040         HT  3944  TIP3    H2 28040   0.417000   1.008000
28041         OT  3945  TIP3   OH2 28041  -0.834000  15.999400
28042         HT  3945  TIP3    H1 28042   0.417000   1.008000
28043         HT  3945  TIP3    H2 28043   0.417000   1.008000
28044         OT  3946  TIP3   OH2 28044  -0.834000  15.999400
28045         HT  3946  TIP3    H1 28045   0.417000   1.008000
28046         HT  3946  TIP3    H2 28046   0.417000   1.008000
28047         OT  3947  TIP3   OH2 28047  -0.834000  15.999400
28048         HT  3947  TIP3    H1 28048   0.417000   1.008000
28049         HT  3947  TIP3    H2 28049   0.417000   1.008000
28050         OT  3948  TIP3   OH2 28050  -0.834000  15.999400
28051         HT  3948  TIP3    H1 28051   0.417000   1.008000
28052         HT  3948  TIP3    H2 28052   0.417000   1.008000
28053         OT  3949  TIP3   OH2 28053  -0.834000  15.999400
28054         HT  3949  TIP3    H1 28054   0.417000   1.008000
28055         HT  3949  TIP3    H2 28055   0.417000   1.008000
28056         OT  3950  TIP3   OH2 28056  -0.834000  15.999400
28057         HT  3950  TIP3    H1 28057   0.417000   1.008000
28058         HT  3950  TIP3    H2 28058   0.417000   1.008000
28059         OT  3951  TIP3   OH2 28059  -0.834000  15.999400
28060         HT  3951  TIP3    H1 28060   0.417000   1.008000
28061         HT  3951  TIP3    H2 28061   0.417000   1.008000
28062         OT  3952  TIP3   OH2 28062  -0.834000  15.999400
28063         HT  3952  TIP3    H1 28063   0.417000   1.008000
28064         HT  3952  TIP3    H2 28064   0.417000   1.008000
28065         OT  3953  TIP3   OH2 28065  -0.834000  15.999400
28066         HT  3953  TIP3    H1 28066   0.417000   1.008000
28067         HT  3953  TIP3    H2 28067   0.417000   1.008000
28068         OT  3954  TIP3   OH2 28068  -0.834000  15.999400
28069         HT  3954  TIP3    H1 28069   0.417000   1.008000
28070         HT  3954  TIP3    H2 28070   0.417000   1.008000
28071         OT  3955  TIP3   OH2 28071  -0.834000  15.999400
28072         HT  3955  TIP3    H1 28072   0.417000   1.008000
28073         HT  3955  TIP3    H2 28073   0.417000   1.008000
28074         OT  3956  TIP3   OH2 28074  -0.834000  15.999400
28075         HT  3956  TIP3    H1 28075   0.417000   1.008000
28076         HT  3956  TIP3    H2 28076   0.417000   1.008000
28077         OT  3957  TIP3   OH2 28077  -0.834000  15.999400
28078         HT  3957  TIP3    H1 28078   0.417000   1.008000
28079         HT  3957  TIP3    H2 28079   0.417000   1.008000
28080         OT  3958  TIP3   OH2 28080  -0.834000  15.999400
28081         HT  3958  TIP3    H1 28081   0.417000   1.008000
28082         HT  3958  TIP3    H2 28082   0.417000   1.008000
28083         OT  3959  TIP3   OH2 28083  -0.834000  15.999400
28084         HT  3959  TIP3    H1 28084   0.417000   1.008000
28085         HT  3959  TIP3    H2 28085   0.417000   1.008000
28086         OT  3960  TIP3   OH2 28086  -0.834000  15.999400
28087         HT  3960  TIP3    H1 28087   0.417000   1.008000
28088         HT  3960  TIP3    H2 28088   0.417000   1.008000
28089         OT  3961  TIP3   OH2 28089  -0.834000  15.999400
28090         HT  3961  TIP3    H1 28090   0.417000   1.008000
28091         HT  3961  TIP3    H2 28091   0.417000   1.008000
28092         OT  3962  TIP3   OH2 28092  -0.834000  15.999400
28093         HT  3962  TIP3    H1 28093   0.417000   1.008000
28094         HT  3962  TIP3    H2 28094   0.417000   1.008000
28095         OT  3963  TIP3   OH2 28095  -0.834000  15.999400
28096         HT  3963  TIP3    H1 28096   0.417000   1.008000
28097         HT  3963  TIP3    H2 28097   0.417000   1.008000
28098         OT  3964  TIP3   OH2 28098  -0.834000  15.999400
28099         HT  3964  TIP3    H1 28099   0.417000   1.008000
28100         HT  3964  TIP3    H2 28100   0.417000   1.008000
28101         OT  3965  TIP3   OH2 28101  -0.834000  15.999400
28102         HT  3965  TIP3    H1 28102   0.417000   1.008000
28103         HT  3965  TIP3    H2 28103   0.417000   1.008000
28104         OT  3966  TIP3   OH2 28104  -0.834000  15.999400
28105         HT  3966  TIP3    H1 28105   0.417000   1.008000
28106         HT  3966  TIP3    H2 28106   0.417000   1.008000
28107         OT  3967  TIP3   OH2 28107  -0.834000  15.999400
28108         HT  3967  TIP3    H1 28108   0.417000   1.008000
28109         HT  3967  TIP3    H2 28109   0.417000   1.008000
28110         OT  3968  TIP3   OH2 28110  -0.834000  15.999400
28111         HT  3968  TIP3    H1 28111   0.417000   1.008000
28112         HT  3968  TIP3    H2 28112   0.417000   1.008000
28113         OT  3969  TIP3   OH2 28113  -0.834000  15.999400
28114         HT  3969  TIP3    H1 28114   0.417000   1.008000
28115         HT  3969  TIP3    H2 28115   0.417000   1.008000
28116         OT  3970  TIP3   OH2 28116  -0.834000  15.999400
28117         HT  3970  TIP3    H1 28117   0.417000   1.008000
28118         HT  3970  TIP3    H2 28118   0.417000   1.008000
28119         OT  3971  TIP3   OH2 28119  -0.834000  15.999400
28120         HT  3971  TIP3    H1 28120   0.417000   1.008000
28121         HT  3971  TIP3    H2 28121   0.417000   1.008000
28122         OT  3972  TIP3   OH2 28122  -0.834000  15.999400
28123         HT  3972  TIP3    H1 28123   0.417000   1.008000
28124         HT  3972  TIP3    H2 28124   0.417000   1.008000
28125         OT  3973  TIP3   OH2 28125  -0.834000  15.999400
28126         HT  3973  TIP3    H1 28126   0.417000   1.008000
28127         HT  3973  TIP3    H2 28127   0.417000   1.008000
28128         OT  3974  TIP3   OH2 28128  -0.834000  15.999400
28129         HT  3974  TIP3    H1 28129   0.417000   1.008000
28130         HT  3974  TIP3    H2 28130   0.417000   1.008000
28131         OT  3975  TIP3   OH2 28131  -0.834000  15.999400
28132         HT  3975  TIP3    H1 28132   0.417000   1.008000
28133         HT  3975  TIP3    H2 28133   0.417000   1.008000
28134         OT  3976  TIP3   OH2 28134  -0.834000  15.999400
28135         HT  3976  TIP3    H1 28135   0.417000   1.008000
28136         HT  3976  TIP3    H2 28136   0.417000   1.008000
28137         OT  3977  TIP3   OH2 28137  -0.834000  15.999400
28138         HT  3977  TIP3    H1 28138   0.417000   1.008000
28139         HT  3977  TIP3    H2 28139   0.417000   1.008000
28140         OT  3978  TIP3   OH2 28140  -0.834000  15.999400
28141         HT  3978  TIP3    H1 28141   0.417000   1.008000
28142         HT  3978  TIP3    H2 28142   0.417000   1.008000
28143         OT  3979  TIP3   OH2 28143  -0.834000  15.999400
28144         HT  3979  TIP3    H1 28144   0.417000   1.008000
28145         HT  3979  TIP3    H2 28145   0.417000   1.008000
28146         OT  3980  TIP3   OH2 28146  -0.834000  15.999400
28147         HT  3980  TIP3    H1 28147   0.417000   1.008000
28148         HT  3980  TIP3    H2 28148   0.417000   1.008000
28149         OT  3981  TIP3   OH2 28149  -0.834000  15.999400
28150         HT  3981  TIP3    H1 28150   0.417000   1.008000
28151         HT  3981  TIP3    H2 28151   0.417000   1.008000
28152         OT  3982  TIP3   OH2 28152  -0.834000  15.999400
28153         HT  3982  TIP3    H1 28153   0.417000   1.008000
28154         HT  3982  TIP3    H2 28154   0.417000   1.008000
28155         OT  3983  TIP3   OH2 28155  -0.834000  15.999400
28156         HT  3983  TIP3    H1 28156   0.417000   1.008000
28157         HT  3983  TIP3    H2 28157   0.417000   1.008000
28158         OT  3984  TIP3   OH2 28158  -0.834000  15.999400
28159         HT  3984  TIP3    H1 28159   0.417000   1.008000
28160         HT  3984  TIP3    H2 28160   0.417000   1.008000
28161         OT  3985  TIP3   OH2 28161  -0.834000  15.999400
28162         HT  3985  TIP3    H1 28162   0.417000   1.008000
28163         HT  3985  TIP3    H2 28163   0.417000   1.008000
28164         OT  3986  TIP3   OH2 28164  -0.834000  15.999400
28165         HT  3986  TIP3    H1 28165   0.417000   1.008000
28166         HT  3986  TIP3    H2 28166   0.417000   1.008000
28167         OT  3987  TIP3   OH2 28167  -0.834000  15.999400
28168         HT  3987  TIP3    H1 28168   0.417000   1.008000
28169         HT  3987  TIP3    H2 28169   0.417000   1.008000
28170         OT  3988  TIP3   OH2 28170  -0.834000  15.999400
28171         HT  3988  TIP3    H1 28171   0.417000   1.008000
28172         HT  3988  TIP3    H2 28172   0.417000   1.008000
28173         OT  3989  TIP3   OH2 28173  -0.834000  15.999400
28174         HT  3989  TIP3    H1 28174   0.417000   1.008000
28175         HT  3989  TIP3    H2 28175   0.417000   1.008000
28176         OT  3990  TIP3   OH2 28176  -0.834000  15.999400
28177         HT  3990  TIP3    H1 28177   0.417000   1.008000
28178         HT  3990  TIP3    H2 28178   0.417000   1.008000
28179         OT  3991  TIP3   OH2 28179  -0.834000  15.999400
28180         HT  3991  TIP3    H1 28180   0.417000   1.008000
28181         HT  3991  TIP3    H2 28181   0.417000   1.008000
28182         OT  3992  TIP3   OH2 28182  -0.834000  15.999400
28183         HT  3992  TIP3    H1 28183   0.417000   1.008000
28184         HT  3992  TIP3    H2 28184   0.417000   1.008000
28185         OT  3993  TIP3   OH2 28185  -0.834000  15.999400
28186         HT  3993  TIP3    H1 28186   0.417000   1.008000
28187         HT  3993  TIP3    H2 28187   0.417000   1.008000
28188         OT  3994  TIP3   OH2 28188  -0.834000  15.999400
28189         HT  3994  TIP3    H1 28189   0.417000   1.008000
28190         HT  3994  TIP3    H2 28190   0.417000   1.008000
28191         OT  3995  TIP3   OH2 28191  -0.834000  15.999400
28192         HT  3995  TIP3    H1 28192   0.417000   1.008000
28193         HT  3995  TIP3    H2 28193   0.417000   1.008000
28194         OT  3996  TIP3   OH2 28194  -0.834000  15.999400
28195         HT  3996  TIP3    H1 28195   0.417000   1.008000
28196         HT  3996  TIP3    H2 28196   0.417000   1.008000
28197         OT  3997  TIP3   OH2 28197  -0.834000  15.999400
28198         HT  3997  TIP3    H1 28198   0.417000   1.008000
28199         HT  3997  TIP3    H2 28199   0.417000   1.008000
28200         OT  3998  TIP3   OH2 28200  -0.834000  15.999400
28201         HT  3998  TIP3    H1 28201   0.417000   1.008000
28202         HT  3998  TIP3    H2 28202   0.417000   1.008000
28203         OT  3999  TIP3   OH2 28203  -0.834000  15.999400
28204         HT  3999  TIP3    H1 28204   0.417000   1.008000
28205         HT  3999  TIP3    H2 28205   0.417000   1.008000
28206         OT  4000  TIP3   OH2 28206  -0.834000  15.999400
28207         HT  4000  TIP3    H1 28207   0.417000   1.008000
28208         HT  4000  TIP3    H2 28208   0.417000   1.008000
28209         OT  4001  TIP3   OH2 28209  -0.834000  15.999400
28210         HT  4001  TIP3    H1 28210   0.417000   1.008000
28211         HT  4001  TIP3    H2 28211   0.417000   1.008000
28212         OT  4002  TIP3   OH2 28212  -0.834000  15.999400
28213         HT  4002  TIP3    H1 28213   0.417000   1.008000
28214         HT  4002  TIP3    H2 28214   0.417000   1.008000
28215         OT  4003  TIP3   OH2 28215  -0.834000  15.999400
28216         HT  4003  TIP3    H1 28216   0.417000   1.008000
28217         HT  4003  TIP3    H2 28217   0.417000   1.008000
28218         OT  4004  TIP3   OH2 28218  -0.834000  15.999400
28219         HT  4004  TIP3    H1 28219   0.417000   1.008000
28220         HT  4004  TIP3    H2 28220   0.417000   1.008000
28221         OT  4005  TIP3   OH2 28221  -0.834000  15.999400
28222         HT  4005  TIP3    H1 28222   0.417000   1.008000
28223         HT  4005  TIP3    H2 28223   0.417000   1.008000
28224         OT  4006  TIP3   OH2 28224  -0.834000  15.999400
28225         HT  4006  TIP3    H1 28225   0.417000   1.008000
28226         HT  4006  TIP3    H2 28226   0.417000   1.008000
28227         OT  4007  TIP3   OH2 28227  -0.834000  15.999400
28228         HT  4007  TIP3    H1 28228   0.417000   1.008000
28229         HT  4007  TIP3    H2 28229   0.417000   1.008000
28230         OT  4008  TIP3   OH2 28230  -0.834000  15.999400
28231         HT  4008  TIP3    H1 28231   0.417000   1.008000
28232         HT  4008  TIP3    H2 28232   0.417000   1.008000
28233         OT  4009  TIP3   OH2 28233  -0.834000  15.999400
28234         HT  4009  TIP3    H1 28234   0.417000   1.008000
28235         HT  4009  TIP3    H2 28235   0.417000   1.008000
28236         OT  4010  TIP3   OH2 28236  -0.834000  15.999400
28237         HT  4010  TIP3    H1 28237   0.417000   1.008000
28238         HT  4010  TIP3    H2 28238   0.417000   1.008000
28239         OT  4011  TIP3   OH2 28239  -0.834000  15.999400
28240         HT  4011  TIP3    H1 28240   0.417000   1.008000
28241         HT  4011  TIP3    H2 28241   0.417000   1.008000
28242         OT  4012  TIP3   OH2 28242  -0.834000  15.999400
28243         HT  4012  TIP3    H1 28243   0.417000   1.008000
28244         HT  4012  TIP3    H2 28244   0.417000   1.008000
28245         OT  4013  TIP3   OH2 28245  -0.834000  15.999400
28246         HT  4013  TIP3    H1 28246   0.417000   1.008000
28247         HT  4013  TIP3    H2 28247   0.417000   1.008000
28248         OT  4014  TIP3   OH2 28248  -0.834000  15.999400
28249         HT  4014  TIP3    H1 28249   0.417000   1.008000
28250         HT  4014  TIP3    H2 28250   0.417000   1.008000
28251         OT  4015  TIP3   OH2 28251  -0.834000  15.999400
28252         HT  4015  TIP3    H1 28252   0.417000   1.008000
28253         HT  4015  TIP3    H2 28253   0.417000   1.008000
28254         OT  4016  TIP3   OH2 28254  -0.834000  15.999400
28255         HT  4016  TIP3    H1 28255   0.417000   1.008000
28256         HT  4016  TIP3    H2 28256   0.417000   1.008000
28257         OT  4017  TIP3   OH2 28257  -0.834000  15.999400
28258         HT  4017  TIP3    H1 28258   0.417000   1.008000
28259         HT  4017  TIP3    H2 28259   0.417000   1.008000
28260         OT  4018  TIP3   OH2 28260  -0.834000  15.999400
28261         HT  4018  TIP3    H1 28261   0.417000   1.008000
28262         HT  4018  TIP3    H2 28262   0.417000   1.008000
28263         OT  4019  TIP3   OH2 28263  -0.834000  15.999400
28264         HT  4019  TIP3    H1 28264   0.417000   1.008000
28265         HT  4019  TIP3    H2 28265   0.417000   1.008000
28266         OT  4020  TIP3   OH2 28266  -0.834000  15.999400
28267         HT  4020  TIP3    H1 28267   0.417000   1.008000
28268         HT  4020  TIP3    H2 28268   0.417000   1.008000
28269         OT  4021  TIP3   OH2 28269  -0.834000  15.999400
28270         HT  4021  TIP3    H1 28270   0.417000   1.008000
28271         HT  4021  TIP3    H2 28271   0.417000   1.008000
28272         OT  4022  TIP3   OH2 28272  -0.834000  15.999400
28273         HT  4022  TIP3    H1 28273   0.417000   1.008000
28274         HT  4022  TIP3    H2 28274   0.417000   1.008000
28275         OT  4023  TIP3   OH2 28275  -0.834000  15.999400
28276         HT  4023  TIP3    H1 28276   0.417000   1.008000
28277         HT  4023  TIP3    H2 28277   0.417000   1.008000
28278         OT  4024  TIP3   OH2 28278  -0.834000  15.999400
28279         HT  4024  TIP3    H1 28279   0.417000   1.008000
28280         HT  4024  TIP3    H2 28280   0.417000   1.008000
28281         OT  4025  TIP3   OH2 28281  -0.834000  15.999400
28282         HT  4025  TIP3    H1 28282   0.417000   1.008000
28283         HT  4025  TIP3    H2 28283   0.417000   1.008000
28284         OT  4026  TIP3   OH2 28284  -0.834000  15.999400
28285         HT  4026  TIP3    H1 28285   0.417000   1.008000
28286         HT  4026  TIP3    H2 28286   0.417000   1.008000
28287         OT  4027  TIP3   OH2 28287  -0.834000  15.999400
28288         HT  4027  TIP3    H1 28288   0.417000   1.008000
28289         HT  4027  TIP3    H2 28289   0.417000   1.008000
28290         OT  4028  TIP3   OH2 28290  -0.834000  15.999400
28291         HT  4028  TIP3    H1 28291   0.417000   1.008000
28292         HT  4028  TIP3    H2 28292   0.417000   1.008000
28293         OT  4029  TIP3   OH2 28293  -0.834000  15.999400
28294         HT  4029  TIP3    H1 28294   0.417000   1.008000
28295         HT  4029  TIP3    H2 28295   0.417000   1.008000
28296         OT  4030  TIP3   OH2 28296  -0.834000  15.999400
28297         HT  4030  TIP3    H1 28297   0.417000   1.008000
28298         HT  4030  TIP3    H2 28298   0.417000   1.008000
28299         OT  4031  TIP3   OH2 28299  -0.834000  15.999400
28300         HT  4031  TIP3    H1 28300   0.417000   1.008000
28301         HT  4031  TIP3    H2 28301   0.417000   1.008000
28302         OT  4032  TIP3   OH2 28302  -0.834000  15.999400
28303         HT  4032  TIP3    H1 28303   0.417000   1.008000
28304         HT  4032  TIP3    H2 28304   0.417000   1.008000
28305         OT  4033  TIP3   OH2 28305  -0.834000  15.999400
28306         HT  4033  TIP3    H1 28306   0.417000   1.008000
28307         HT  4033  TIP3    H2 28307   0.417000   1.008000
28308         OT  4034  TIP3   OH2 28308  -0.834000  15.999400
28309         HT  4034  TIP3    H1 28309   0.417000   1.008000
28310         HT  4034  TIP3    H2 28310   0.417000   1.008000
28311         OT  4035  TIP3   OH2 28311  -0.834000  15.999400
28312         HT  4035  TIP3    H1 28312   0.417000   1.008000
28313         HT  4035  TIP3    H2 28313   0.417000   1.008000
28314         OT  4036  TIP3   OH2 28314  -0.834000  15.999400
28315         HT  4036  TIP3    H1 28315   0.417000   1.008000
28316         HT  4036  TIP3    H2 28316   0.417000   1.008000
28317         OT  4037  TIP3   OH2 28317  -0.834000  15.999400
28318         HT  4037  TIP3    H1 28318   0.417000   1.008000
28319         HT  4037  TIP3    H2 28319   0.417000   1.008000
28320         OT  4038  TIP3   OH2 28320  -0.834000  15.999400
28321         HT  4038  TIP3    H1 28321   0.417000   1.008000
28322         HT  4038  TIP3    H2 28322   0.417000   1.008000
28323         OT  4039  TIP3   OH2 28323  -0.834000  15.999400
28324         HT  4039  TIP3    H1 28324   0.417000   1.008000
28325         HT  4039  TIP3    H2 28325   0.417000   1.008000
28326         OT  4040  TIP3   OH2 28326  -0.834000  15.999400
28327         HT  4040  TIP3    H1 28327   0.417000   1.008000
28328         HT  4040  TIP3    H2 28328   0.417000   1.008000
28329         OT  4041  TIP3   OH2 28329  -0.834000  15.999400
28330         HT  4041  TIP3    H1 28330   0.417000   1.008000
28331         HT  4041  TIP3    H2 28331   0.417000   1.008000
28332         OT  4042  TIP3   OH2 28332  -0.834000  15.999400
28333         HT  4042  TIP3    H1 28333   0.417000   1.008000
28334         HT  4042  TIP3    H2 28334   0.417000   1.008000
28335         OT  4043  TIP3   OH2 28335  -0.834000  15.999400
28336         HT  4043  TIP3    H1 28336   0.417000   1.008000
28337         HT  4043  TIP3    H2 28337   0.417000   1.008000
28338         OT  4044  TIP3   OH2 28338  -0.834000  15.999400
28339         HT  4044  TIP3    H1 28339   0.417000   1.008000
28340         HT  4044  TIP3    H2 28340   0.417000   1.008000
28341         OT  4045  TIP3   OH2 28341  -0.834000  15.999400
28342         HT  4045  TIP3    H1 28342   0.417000   1.008000
28343         HT  4045  TIP3    H2 28343   0.417000   1.008000
28344         OT  4046  TIP3   OH2 28344  -0.834000  15.999400
28345         HT  4046  TIP3    H1 28345   0.417000   1.008000
28346         HT  4046  TIP3    H2 28346   0.417000   1.008000
28347         OT  4047  TIP3   OH2 28347  -0.834000  15.999400
28348         HT  4047  TIP3    H1 28348   0.417000   1.008000
28349         HT  4047  TIP3    H2 28349   0.417000   1.008000
28350         OT  4048  TIP3   OH2 28350  -0.834000  15.999400
28351         HT  4048  TIP3    H1 28351   0.417000   1.008000
28352         HT  4048  TIP3    H2 28352   0.417000   1.008000
28353         OT  4049  TIP3   OH2 28353  -0.834000  15.999400
28354         HT  4049  TIP3    H1 28354   0.417000   1.008000
28355         HT  4049  TIP3    H2 28355   0.417000   1.008000
28356         OT  4050  TIP3   OH2 28356  -0.834000  15.999400
28357         HT  4050  TIP3    H1 28357   0.417000   1.008000
28358         HT  4050  TIP3    H2 28358   0.417000   1.008000
28359         OT  4051  TIP3   OH2 28359  -0.834000  15.999400
28360         HT  4051  TIP3    H1 28360   0.417000   1.008000
28361         HT  4051  TIP3    H2 28361   0.417000   1.008000
28362         OT  4052  TIP3   OH2 28362  -0.834000  15.999400
28363         HT  4052  TIP3    H1 28363   0.417000   1.008000
28364         HT  4052  TIP3    H2 28364   0.417000   1.008000
28365         OT  4053  TIP3   OH2 28365  -0.834000  15.999400
28366         HT  4053  TIP3    H1 28366   0.417000   1.008000
28367         HT  4053  TIP3    H2 28367   0.417000   1.008000
28368         OT  4054  TIP3   OH2 28368  -0.834000  15.999400
28369         HT  4054  TIP3    H1 28369   0.417000   1.008000
28370         HT  4054  TIP3    H2 28370   0.417000   1.008000
28371         OT  4055  TIP3   OH2 28371  -0.834000  15.999400
28372         HT  4055  TIP3    H1 28372   0.417000   1.008000
28373         HT  4055  TIP3    H2 28373   0.417000   1.008000
28374         OT  4056  TIP3   OH2 28374  -0.834000  15.999400
28375         HT  4056  TIP3    H1 28375   0.417000   1.008000
28376         HT  4056  TIP3    H2 28376   0.417000   1.008000
28377         OT  4057  TIP3   OH2 28377  -0.834000  15.999400
28378         HT  4057  TIP3    H1 28378   0.417000   1.008000
28379         HT  4057  TIP3    H2 28379   0.417000   1.008000
28380         OT  4058  TIP3   OH2 28380  -0.834000  15.999400
28381         HT  4058  TIP3    H1 28381   0.417000   1.008000
28382         HT  4058  TIP3    H2 28382   0.417000   1.008000
28383         OT  4059  TIP3   OH2 28383  -0.834000  15.999400
28384         HT  4059  TIP3    H1 28384   0.417000   1.008000
28385         HT  4059  TIP3    H2 28385   0.417000   1.008000
28386         OT  4060  TIP3   OH2 28386  -0.834000  15.999400
28387         HT  4060  TIP3    H1 28387   0.417000   1.008000
28388         HT  4060  TIP3    H2 28388   0.417000   1.008000
28389         OT  4061  TIP3   OH2 28389  -0.834000  15.999400
28390         HT  4061  TIP3    H1 28390   0.417000   1.008000
28391         HT  4061  TIP3    H2 28391   0.417000   1.008000
28392         OT  4062  TIP3   OH2 28392  -0.834000  15.999400
28393         HT  4062  TIP3    H1 28393   0.417000   1.008000
28394         HT  4062  TIP3    H2 28394   0.417000   1.008000
28395         OT  4063  TIP3   OH2 28395  -0.834000  15.999400
28396         HT  4063  TIP3    H1 28396   0.417000   1.008000
28397         HT  4063  TIP3    H2 28397   0.417000   1.008000
28398         OT  4064  TIP3   OH2 28398  -0.834000  15.999400
28399         HT  4064  TIP3    H1 28399   0.417000   1.008000
28400         HT  4064  TIP3    H2 28400   0.417000   1.008000
28401         OT  4065  TIP3   OH2 28401  -0.834000  15.999400
28402         HT  4065  TIP3    H1 28402   0.417000   1.008000
28403         HT  4065  TIP3    H2 28403   0.417000   1.008000
28404         OT  4066  TIP3   OH2 28404  -0.834000  15.999400
28405         HT  4066  TIP3    H1 28405   0.417000   1.008000
28406         HT  4066  TIP3    H2 28406   0.417000   1.008000
28407         OT  4067  TIP3   OH2 28407  -0.834000  15.999400
28408         HT  4067  TIP3    H1 28408   0.417000   1.008000
28409         HT  4067  TIP3    H2 28409   0.417000   1.008000
28410         OT  4068  TIP3   OH2 28410  -0.834000  15.999400
28411         HT  4068  TIP3    H1 28411   0.417000   1.008000
28412         HT  4068  TIP3    H2 28412   0.417000   1.008000
28413         OT  4069  TIP3   OH2 28413  -0.834000  15.999400
28414         HT  4069  TIP3    H1 28414   0.417000   1.008000
28415         HT  4069  TIP3    H2 28415   0.417000   1.008000
28416         OT  4070  TIP3   OH2 28416  -0.834000  15.999400
28417         HT  4070  TIP3    H1 28417   0.417000   1.008000
28418         HT  4070  TIP3    H2 28418   0.417000   1.008000
28419         OT  4071  TIP3   OH2 28419  -0.834000  15.999400
28420         HT  4071  TIP3    H1 28420   0.417000   1.008000
28421         HT  4071  TIP3    H2 28421   0.417000   1.008000
28422         OT  4072  TIP3   OH2 28422  -0.834000  15.999400
28423         HT  4072  TIP3    H1 28423   0.417000   1.008000
28424         HT  4072  TIP3    H2 28424   0.417000   1.008000
28425         OT  4073  TIP3   OH2 28425  -0.834000  15.999400
28426         HT  4073  TIP3    H1 28426   0.417000   1.008000
28427         HT  4073  TIP3    H2 28427   0.417000   1.008000
28428         OT  4074  TIP3   OH2 28428  -0.834000  15.999400
28429         HT  4074  TIP3    H1 28429   0.417000   1.008000
28430         HT  4074  TIP3    H2 28430   0.417000   1.008000
28431         OT  4075  TIP3   OH2 28431  -0.834000  15.999400
28432         HT  4075  TIP3    H1 28432   0.417000   1.008000
28433         HT  4075  TIP3    H2 28433   0.417000   1.008000
28434         OT  4076  TIP3   OH2 28434  -0.834000  15.999400
28435         HT  4076  TIP3    H1 28435   0.417000   1.008000
28436         HT  4076  TIP3    H2 28436   0.417000   1.008000
28437         OT  4077  TIP3   OH2 28437  -0.834000  15.999400
28438         HT  4077  TIP3    H1 28438   0.417000   1.008000
28439         HT  4077  TIP3    H2 28439   0.417000   1.008000
28440         OT  4078  TIP3   OH2 28440  -0.834000  15.999400
28441         HT  4078  TIP3    H1 28441   0.417000   1.008000
28442         HT  4078  TIP3    H2 28442   0.417000   1.008000
28443         OT  4079  TIP3   OH2 28443  -0.834000  15.999400
28444         HT  4079  TIP3    H1 28444   0.417000   1.008000
28445         HT  4079  TIP3    H2 28445   0.417000   1.008000
28446         OT  4080  TIP3   OH2 28446  -0.834000  15.999400
28447         HT  4080  TIP3    H1 28447   0.417000   1.008000
28448         HT  4080  TIP3    H2 28448   0.417000   1.008000
28449         OT  4081  TIP3   OH2 28449  -0.834000  15.999400
28450         HT  4081  TIP3    H1 28450   0.417000   1.008000
28451         HT  4081  TIP3    H2 28451   0.417000   1.008000
28452         OT  4082  TIP3   OH2 28452  -0.834000  15.999400
28453         HT  4082  TIP3    H1 28453   0.417000   1.008000
28454         HT  4082  TIP3    H2 28454   0.417000   1.008000
28455         OT  4083  TIP3   OH2 28455  -0.834000  15.999400
28456         HT  4083  TIP3    H1 28456   0.417000   1.008000
28457         HT  4083  TIP3    H2 28457   0.417000   1.008000
28458         OT  4084  TIP3   OH2 28458  -0.834000  15.999400
28459         HT  4084  TIP3    H1 28459   0.417000   1.008000
28460         HT  4084  TIP3    H2 28460   0.417000   1.008000
28461         OT  4085  TIP3   OH2 28461  -0.834000  15.999400
28462         HT  4085  TIP3    H1 28462   0.417000   1.008000
28463         HT  4085  TIP3    H2 28463   0.417000   1.008000
28464         OT  4086  TIP3   OH2 28464  -0.834000  15.999400
28465         HT  4086  TIP3    H1 28465   0.417000   1.008000
28466         HT  4086  TIP3    H2 28466   0.417000   1.008000
28467         OT  4087  TIP3   OH2 28467  -0.834000  15.999400
28468         HT  4087  TIP3    H1 28468   0.417000   1.008000
28469         HT  4087  TIP3    H2 28469   0.417000   1.008000
28470         OT  4088  TIP3   OH2 28470  -0.834000  15.999400
28471         HT  4088  TIP3    H1 28471   0.417000   1.008000
28472         HT  4088  TIP3    H2 28472   0.417000   1.008000
28473         OT  4089  TIP3   OH2 28473  -0.834000  15.999400
28474         HT  4089  TIP3    H1 28474   0.417000   1.008000
28475         HT  4089  TIP3    H2 28475   0.417000   1.008000
28476         OT  4090  TIP3   OH2 28476  -0.834000  15.999400
28477         HT  4090  TIP3    H1 28477   0.417000   1.008000
28478         HT  4090  TIP3    H2 28478   0.417000   1.008000
28479         OT  4091  TIP3   OH2 28479  -0.834000  15.999400
28480         HT  4091  TIP3    H1 28480   0.417000   1.008000
28481         HT  4091  TIP3    H2 28481   0.417000   1.008000
28482         OT  4092  TIP3   OH2 28482  -0.834000  15.999400
28483         HT  4092  TIP3    H1 28483   0.417000   1.008000
28484         HT  4092  TIP3    H2 28484   0.417000   1.008000
28485         OT  4093  TIP3   OH2 28485  -0.834000  15.999400
28486         HT  4093  TIP3    H1 28486   0.417000   1.008000
28487         HT  4093  TIP3    H2 28487   0.417000   1.008000
28488         OT  4094  TIP3   OH2 28488  -0.834000  15.999400
28489         HT  4094  TIP3    H1 28489   0.417000   1.008000
28490         HT  4094  TIP3    H2 28490   0.417000   1.008000
28491         OT  4095  TIP3   OH2 28491  -0.834000  15.999400
28492         HT  4095  TIP3    H1 28492   0.417000   1.008000
28493         HT  4095  TIP3    H2 28493   0.417000   1.008000
28494         OT  4096  TIP3   OH2 28494  -0.834000  15.999400
28495         HT  4096  TIP3    H1 28495   0.417000   1.008000
28496         HT  4096  TIP3    H2 28496   0.417000   1.008000
28497         OT  4097  TIP3   OH2 28497  -0.834000  15.999400
28498         HT  4097  TIP3    H1 28498   0.417000   1.008000
28499         HT  4097  TIP3    H2 28499   0.417000   1.008000
28500         OT  4098  TIP3   OH2 28500  -0.834000  15.999400
28501         HT  4098  TIP3    H1 28501   0.417000   1.008000
28502         HT  4098  TIP3    H2 28502   0.417000   1.008000
28503         OT  4099  TIP3   OH2 28503  -0.834000  15.999400
28504         HT  4099  TIP3    H1 28504   0.417000   1.008000
28505         HT  4099  TIP3    H2 28505   0.417000   1.008000
28506         OT  4100  TIP3   OH2 28506  -0.834000  15.999400
28507         HT  4100  TIP3    H1 28507   0.417000   1.008000
28508         HT  4100  TIP3    H2 28508   0.417000   1.008000
28509         OT  4101  TIP3   OH2 28509  -0.834000  15.999400
28510         HT  4101  TIP3    H1 28510   0.417000   1.008000
28511         HT  4101  TIP3    H2 28511   0.417000   1.008000
28512         OT  4102  TIP3   OH2 28512  -0.834000  15.999400
28513         HT  4102  TIP3    H1 28513   0.417000   1.008000
28514         HT  4102  TIP3    H2 28514   0.417000   1.008000
28515         OT  4103  TIP3   OH2 28515  -0.834000  15.999400
28516         HT  4103  TIP3    H1 28516   0.417000   1.008000
28517         HT  4103  TIP3    H2 28517   0.417000   1.008000
28518         OT  4104  TIP3   OH2 28518  -0.834000  15.999400
28519         HT  4104  TIP3    H1 28519   0.417000   1.008000
28520         HT  4104  TIP3    H2 28520   0.417000   1.008000
28521         OT  4105  TIP3   OH2 28521  -0.834000  15.999400
28522         HT  4105  TIP3    H1 28522   0.417000   1.008000
28523         HT  4105  TIP3    H2 28523   0.417000   1.008000
28524         OT  4106  TIP3   OH2 28524  -0.834000  15.999400
28525         HT  4106  TIP3    H1 28525   0.417000   1.008000
28526         HT  4106  TIP3    H2 28526   0.417000   1.008000
28527         OT  4107  TIP3   OH2 28527  -0.834000  15.999400
28528         HT  4107  TIP3    H1 28528   0.417000   1.008000
28529         HT  4107  TIP3    H2 28529   0.417000   1.008000
28530         OT  4108  TIP3   OH2 28530  -0.834000  15.999400
28531         HT  4108  TIP3    H1 28531   0.417000   1.008000
28532         HT  4108  TIP3    H2 28532   0.417000   1.008000
28533         OT  4109  TIP3   OH2 28533  -0.834000  15.999400
28534         HT  4109  TIP3    H1 28534   0.417000   1.008000
28535         HT  4109  TIP3    H2 28535   0.417000   1.008000
28536         OT  4110  TIP3   OH2 28536  -0.834000  15.999400
28537         HT  4110  TIP3    H1 28537   0.417000   1.008000
28538         HT  4110  TIP3    H2 28538   0.417000   1.008000
28539         OT  4111  TIP3   OH2 28539  -0.834000  15.999400
28540         HT  4111  TIP3    H1 28540   0.417000   1.008000
28541         HT  4111  TIP3    H2 28541   0.417000   1.008000
28542         OT  4112  TIP3   OH2 28542  -0.834000  15.999400
28543         HT  4112  TIP3    H1 28543   0.417000   1.008000
28544         HT  4112  TIP3    H2 28544   0.417000   1.008000
28545         OT  4113  TIP3   OH2 28545  -0.834000  15.999400
28546         HT  4113  TIP3    H1 28546   0.417000   1.008000
28547         HT  4113  TIP3    H2 28547   0.417000   1.008000
28548         OT  4114  TIP3   OH2 28548  -0.834000  15.999400
28549         HT  4114  TIP3    H1 28549   0.417000   1.008000
28550         HT  4114  TIP3    H2 28550   0.417000   1.008000
28551         OT  4115  TIP3   OH2 28551  -0.834000  15.999400
28552         HT  4115  TIP3    H1 28552   0.417000   1.008000
28553         HT  4115  TIP3    H2 28553   0.417000   1.008000
28554         OT  4116  TIP3   OH2 28554  -0.834000  15.999400
28555         HT  4116  TIP3    H1 28555   0.417000   1.008000
28556         HT  4116  TIP3    H2 28556   0.417000   1.008000
28557         OT  4117  TIP3   OH2 28557  -0.834000  15.999400
28558         HT  4117  TIP3    H1 28558   0.417000   1.008000
28559         HT  4117  TIP3    H2 28559   0.417000   1.008000
28560         OT  4118  TIP3   OH2 28560  -0.834000  15.999400
28561         HT  4118  TIP3    H1 28561   0.417000   1.008000
28562         HT  4118  TIP3    H2 28562   0.417000   1.008000
28563         OT  4119  TIP3   OH2 28563  -0.834000  15.999400
28564         HT  4119  TIP3    H1 28564   0.417000   1.008000
28565         HT  4119  TIP3    H2 28565   0.417000   1.008000
28566         OT  4120  TIP3   OH2 28566  -0.834000  15.999400
28567         HT  4120  TIP3    H1 28567   0.417000   1.008000
28568         HT  4120  TIP3    H2 28568   0.417000   1.008000
28569         OT  4121  TIP3   OH2 28569  -0.834000  15.999400
28570         HT  4121  TIP3    H1 28570   0.417000   1.008000
28571         HT  4121  TIP3    H2 28571   0.417000   1.008000
28572         OT  4122  TIP3   OH2 28572  -0.834000  15.999400
28573         HT  4122  TIP3    H1 28573   0.417000   1.008000
28574         HT  4122  TIP3    H2 28574   0.417000   1.008000
28575         OT  4123  TIP3   OH2 28575  -0.834000  15.999400
28576         HT  4123  TIP3    H1 28576   0.417000   1.008000
28577         HT  4123  TIP3    H2 28577   0.417000   1.008000
28578         OT  4124  TIP3   OH2 28578  -0.834000  15.999400
28579         HT  4124  TIP3    H1 28579   0.417000   1.008000
28580         HT  4124  TIP3    H2 28580   0.417000   1.008000
28581         OT  4125  TIP3   OH2 28581  -0.834000  15.999400
28582         HT  4125  TIP3    H1 28582   0.417000   1.008000
28583         HT  4125  TIP3    H2 28583   0.417000   1.008000
28584         OT  4126  TIP3   OH2 28584  -0.834000  15.999400
28585         HT  4126  TIP3    H1 28585   0.417000   1.008000
28586         HT  4126  TIP3    H2 28586   0.417000   1.008000
28587         OT  4127  TIP3   OH2 28587  -0.834000  15.999400
28588         HT  4127  TIP3    H1 28588   0.417000   1.008000
28589         HT  4127  TIP3    H2 28589   0.417000   1.008000
28590         OT  4128  TIP3   OH2 28590  -0.834000  15.999400
28591         HT  4128  TIP3    H1 28591   0.417000   1.008000
28592         HT  4128  TIP3    H2 28592   0.417000   1.008000
28593         OT  4129  TIP3   OH2 28593  -0.834000  15.999400
28594         HT  4129  TIP3    H1 28594   0.417000   1.008000
28595         HT  4129  TIP3    H2 28595   0.417000   1.008000
28596         OT  4130  TIP3   OH2 28596  -0.834000  15.999400
28597         HT  4130  TIP3    H1 28597   0.417000   1.008000
28598         HT  4130  TIP3    H2 28598   0.417000   1.008000
28599         OT  4131  TIP3   OH2 28599  -0.834000  15.999400
28600         HT  4131  TIP3    H1 28600   0.417000   1.008000
28601         HT  4131  TIP3    H2 28601   0.417000   1.008000
28602         OT  4132  TIP3   OH2 28602  -0.834000  15.999400
28603         HT  4132  TIP3    H1 28603   0.417000   1.008000
28604         HT  4132  TIP3    H2 28604   0.417000   1.008000
28605         OT  4133  TIP3   OH2 28605  -0.834000  15.999400
28606         HT  4133  TIP3    H1 28606   0.417000   1.008000
28607         HT  4133  TIP3    H2 28607   0.417000   1.008000
28608         OT  4134  TIP3   OH2 28608  -0.834000  15.999400
28609         HT  4134  TIP3    H1 28609   0.417000   1.008000
28610         HT  4134  TIP3    H2 28610   0.417000   1.008000
28611         OT  4135  TIP3   OH2 28611  -0.834000  15.999400
28612         HT  4135  TIP3    H1 28612   0.417000   1.008000
28613         HT  4135  TIP3    H2 28613   0.417000   1.008000
28614         OT  4136  TIP3   OH2 28614  -0.834000  15.999400
28615         HT  4136  TIP3    H1 28615   0.417000   1.008000
28616         HT  4136  TIP3    H2 28616   0.417000   1.008000
28617         OT  4137  TIP3   OH2 28617  -0.834000  15.999400
28618         HT  4137  TIP3    H1 28618   0.417000   1.008000
28619         HT  4137  TIP3    H2 28619   0.417000   1.008000
28620         OT  4138  TIP3   OH2 28620  -0.834000  15.999400
28621         HT  4138  TIP3    H1 28621   0.417000   1.008000
28622         HT  4138  TIP3    H2 28622   0.417000   1.008000
28623         OT  4139  TIP3   OH2 28623  -0.834000  15.999400
28624         HT  4139  TIP3    H1 28624   0.417000   1.008000
28625         HT  4139  TIP3    H2 28625   0.417000   1.008000
28626         OT  4140  TIP3   OH2 28626  -0.834000  15.999400
28627         HT  4140  TIP3    H1 28627   0.417000   1.008000
28628         HT  4140  TIP3    H2 28628   0.417000   1.008000
28629         OT  4141  TIP3   OH2 28629  -0.834000  15.999400
28630         HT  4141  TIP3    H1 28630   0.417000   1.008000
28631         HT  4141  TIP3    H2 28631   0.417000   1.008000
28632         OT  4142  TIP3   OH2 28632  -0.834000  15.999400
28633         HT  4142  TIP3    H1 28633   0.417000   1.008000
28634         HT  4142  TIP3    H2 28634   0.417000   1.008000
28635         OT  4143  TIP3   OH2 28635  -0.834000  15.999400
28636         HT  4143  TIP3    H1 28636   0.417000   1.008000
28637         HT  4143  TIP3    H2 28637   0.417000   1.008000
28638         OT  4144  TIP3   OH2 28638  -0.834000  15.999400
28639         HT  4144  TIP3    H1 28639   0.417000   1.008000
28640         HT  4144  TIP3    H2 28640   0.417000   1.008000
28641         OT  4145  TIP3   OH2 28641  -0.834000  15.999400
28642         HT  4145  TIP3    H1 28642   0.417000   1.008000
28643         HT  4145  TIP3    H2 28643   0.417000   1.008000
28644         OT  4146  TIP3   OH2 28644  -0.834000  15.999400
28645         HT  4146  TIP3    H1 28645   0.417000   1.008000
28646         HT  4146  TIP3    H2 28646   0.417000   1.008000
28647         OT  4147  TIP3   OH2 28647  -0.834000  15.999400
28648         HT  4147  TIP3    H1 28648   0.417000   1.008000
28649         HT  4147  TIP3    H2 28649   0.417000   1.008000
28650         OT  4148  TIP3   OH2 28650  -0.834000  15.999400
28651         HT  4148  TIP3    H1 28651   0.417000   1.008000
28652         HT  4148  TIP3    H2 28652   0.417000   1.008000
28653         OT  4149  TIP3   OH2 28653  -0.834000  15.999400
28654         HT  4149  TIP3    H1 28654   0.417000   1.008000
28655         HT  4149  TIP3    H2 28655   0.417000   1.008000
28656         OT  4150  TIP3   OH2 28656  -0.834000  15.999400
28657         HT  4150  TIP3    H1 28657   0.417000   1.008000
28658         HT  4150  TIP3    H2 28658   0.417000   1.008000
28659         OT  4151  TIP3   OH2 28659  -0.834000  15.999400
28660         HT  4151  TIP3    H1 28660   0.417000   1.008000
28661         HT  4151  TIP3    H2 28661   0.417000   1.008000
28662         OT  4152  TIP3   OH2 28662  -0.834000  15.999400
28663         HT  4152  TIP3    H1 28663   0.417000   1.008000
28664         HT  4152  TIP3    H2 28664   0.417000   1.008000
28665         OT  4153  TIP3   OH2 28665  -0.834000  15.999400
28666         HT  4153  TIP3    H1 28666   0.417000   1.008000
28667         HT  4153  TIP3    H2 28667   0.417000   1.008000
28668         OT  4154  TIP3   OH2 28668  -0.834000  15.999400
28669         HT  4154  TIP3    H1 28669   0.417000   1.008000
28670         HT  4154  TIP3    H2 28670   0.417000   1.008000
28671         OT  4155  TIP3   OH2 28671  -0.834000  15.999400
28672         HT  4155  TIP3    H1 28672   0.417000   1.008000
28673         HT  4155  TIP3    H2 28673   0.417000   1.008000
28674         OT  4156  TIP3   OH2 28674  -0.834000  15.999400
28675         HT  4156  TIP3    H1 28675   0.417000   1.008000
28676         HT  4156  TIP3    H2 28676   0.417000   1.008000
28677         OT  4157  TIP3   OH2 28677  -0.834000  15.999400
28678         HT  4157  TIP3    H1 28678   0.417000   1.008000
28679         HT  4157  TIP3    H2 28679   0.417000   1.008000
28680         OT  4158  TIP3   OH2 28680  -0.834000  15.999400
28681         HT  4158  TIP3    H1 28681   0.417000   1.008000
28682         HT  4158  TIP3    H2 28682   0.417000   1.008000
28683         OT  4159  TIP3   OH2 28683  -0.834000  15.999400
28684         HT  4159  TIP3    H1 28684   0.417000   1.008000
28685         HT  4159  TIP3    H2 28685   0.417000   1.008000
28686         OT  4160  TIP3   OH2 28686  -0.834000  15.999400
28687         HT  4160  TIP3    H1 28687   0.417000   1.008000
28688         HT  4160  TIP3    H2 28688   0.417000   1.008000
28689         OT  4161  TIP3   OH2 28689  -0.834000  15.999400
28690         HT  4161  TIP3    H1 28690   0.417000   1.008000
28691         HT  4161  TIP3    H2 28691   0.417000   1.008000
28692         OT  4162  TIP3   OH2 28692  -0.834000  15.999400
28693         HT  4162  TIP3    H1 28693   0.417000   1.008000
28694         HT  4162  TIP3    H2 28694   0.417000   1.008000
28695         OT  4163  TIP3   OH2 28695  -0.834000  15.999400
28696         HT  4163  TIP3    H1 28696   0.417000   1.008000
28697         HT  4163  TIP3    H2 28697   0.417000   1.008000
28698         OT  4164  TIP3   OH2 28698  -0.834000  15.999400
28699         HT  4164  TIP3    H1 28699   0.417000   1.008000
28700         HT  4164  TIP3    H2 28700   0.417000   1.008000
28701         OT  4165  TIP3   OH2 28701  -0.834000  15.999400
28702         HT  4165  TIP3    H1 28702   0.417000   1.008000
28703         HT  4165  TIP3    H2 28703   0.417000   1.008000
28704         OT  4166  TIP3   OH2 28704  -0.834000  15.999400
28705         HT  4166  TIP3    H1 28705   0.417000   1.008000
28706         HT  4166  TIP3    H2 28706   0.417000   1.008000
28707         OT  4167  TIP3   OH2 28707  -0.834000  15.999400
28708         HT  4167  TIP3    H1 28708   0.417000   1.008000
28709         HT  4167  TIP3    H2 28709   0.417000   1.008000
28710         OT  4168  TIP3   OH2 28710  -0.834000  15.999400
28711         HT  4168  TIP3    H1 28711   0.417000   1.008000
28712         HT  4168  TIP3    H2 28712   0.417000   1.008000
28713         OT  4169  TIP3   OH2 28713  -0.834000  15.999400
28714         HT  4169  TIP3    H1 28714   0.417000   1.008000
28715         HT  4169  TIP3    H2 28715   0.417000   1.008000
28716         OT  4170  TIP3   OH2 28716  -0.834000  15.999400
28717         HT  4170  TIP3    H1 28717   0.417000   1.008000
28718         HT  4170  TIP3    H2 28718   0.417000   1.008000
28719         OT  4171  TIP3   OH2 28719  -0.834000  15.999400
28720         HT  4171  TIP3    H1 28720   0.417000   1.008000
28721         HT  4171  TIP3    H2 28721   0.417000   1.008000
28722         OT  4172  TIP3   OH2 28722  -0.834000  15.999400
28723         HT  4172  TIP3    H1 28723   0.417000   1.008000
28724         HT  4172  TIP3    H2 28724   0.417000   1.008000
28725         OT  4173  TIP3   OH2 28725  -0.834000  15.999400
28726         HT  4173  TIP3    H1 28726   0.417000   1.008000
28727         HT  4173  TIP3    H2 28727   0.417000   1.008000
28728         OT  4174  TIP3   OH2 28728  -0.834000  15.999400
28729         HT  4174  TIP3    H1 28729   0.417000   1.008000
28730         HT  4174  TIP3    H2 28730   0.417000   1.008000
28731         OT  4175  TIP3   OH2 28731  -0.834000  15.999400
28732         HT  4175  TIP3    H1 28732   0.417000   1.008000
28733         HT  4175  TIP3    H2 28733   0.417000   1.008000
28734         OT  4176  TIP3   OH2 28734  -0.834000  15.999400
28735         HT  4176  TIP3    H1 28735   0.417000   1.008000
28736         HT  4176  TIP3    H2 28736   0.417000   1.008000
28737         OT  4177  TIP3   OH2 28737  -0.834000  15.999400
28738         HT  4177  TIP3    H1 28738   0.417000   1.008000
28739         HT  4177  TIP3    H2 28739   0.417000   1.008000
28740         OT  4178  TIP3   OH2 28740  -0.834000  15.999400
28741         HT  4178  TIP3    H1 28741   0.417000   1.008000
28742         HT  4178  TIP3    H2 28742   0.417000   1.008000
28743         OT  4179  TIP3   OH2 28743  -0.834000  15.999400
28744         HT  4179  TIP3    H1 28744   0.417000   1.008000
28745         HT  4179  TIP3    H2 28745   0.417000   1.008000
28746         OT  4180  TIP3   OH2 28746  -0.834000  15.999400
28747         HT  4180  TIP3    H1 28747   0.417000   1.008000
28748         HT  4180  TIP3    H2 28748   0.417000   1.008000
28749         OT  4181  TIP3   OH2 28749  -0.834000  15.999400
28750         HT  4181  TIP3    H1 28750   0.417000   1.008000
28751         HT  4181  TIP3    H2 28751   0.417000   1.008000
28752         OT  4182  TIP3   OH2 28752  -0.834000  15.999400
28753         HT  4182  TIP3    H1 28753   0.417000   1.008000
28754         HT  4182  TIP3    H2 28754   0.417000   1.008000
28755         OT  4183  TIP3   OH2 28755  -0.834000  15.999400
28756         HT  4183  TIP3    H1 28756   0.417000   1.008000
28757         HT  4183  TIP3    H2 28757   0.417000   1.008000
28758         OT  4184  TIP3   OH2 28758  -0.834000  15.999400
28759         HT  4184  TIP3    H1 28759   0.417000   1.008000
28760         HT  4184  TIP3    H2 28760   0.417000   1.008000
28761         OT  4185  TIP3   OH2 28761  -0.834000  15.999400
28762         HT  4185  TIP3    H1 28762   0.417000   1.008000
28763         HT  4185  TIP3    H2 28763   0.417000   1.008000
28764         OT  4186  TIP3   OH2 28764  -0.834000  15.999400
28765         HT  4186  TIP3    H1 28765   0.417000   1.008000
28766         HT  4186  TIP3    H2 28766   0.417000   1.008000
28767         OT  4187  TIP3   OH2 28767  -0.834000  15.999400
28768         HT  4187  TIP3    H1 28768   0.417000   1.008000
28769         HT  4187  TIP3    H2 28769   0.417000   1.008000
28770         OT  4188  TIP3   OH2 28770  -0.834000  15.999400
28771         HT  4188  TIP3    H1 28771   0.417000   1.008000
28772         HT  4188  TIP3    H2 28772   0.417000   1.008000
28773         OT  4189  TIP3   OH2 28773  -0.834000  15.999400
28774         HT  4189  TIP3    H1 28774   0.417000   1.008000
28775         HT  4189  TIP3    H2 28775   0.417000   1.008000
28776         OT  4190  TIP3   OH2 28776  -0.834000  15.999400
28777         HT  4190  TIP3    H1 28777   0.417000   1.008000
28778         HT  4190  TIP3    H2 28778   0.417000   1.008000
28779         OT  4191  TIP3   OH2 28779  -0.834000  15.999400
28780         HT  4191  TIP3    H1 28780   0.417000   1.008000
28781         HT  4191  TIP3    H2 28781   0.417000   1.008000
28782         OT  4192  TIP3   OH2 28782  -0.834000  15.999400
28783         HT  4192  TIP3    H1 28783   0.417000   1.008000
28784         HT  4192  TIP3    H2 28784   0.417000   1.008000
28785         OT  4193  TIP3   OH2 28785  -0.834000  15.999400
28786         HT  4193  TIP3    H1 28786   0.417000   1.008000
28787         HT  4193  TIP3    H2 28787   0.417000   1.008000
28788         OT  4194  TIP3   OH2 28788  -0.834000  15.999400
28789         HT  4194  TIP3    H1 28789   0.417000   1.008000
28790         HT  4194  TIP3    H2 28790   0.417000   1.008000
28791         OT  4195  TIP3   OH2 28791  -0.834000  15.999400
28792         HT  4195  TIP3    H1 28792   0.417000   1.008000
28793         HT  4195  TIP3    H2 28793   0.417000   1.008000
28794         OT  4196  TIP3   OH2 28794  -0.834000  15.999400
28795         HT  4196  TIP3    H1 28795   0.417000   1.008000
28796         HT  4196  TIP3    H2 28796   0.417000   1.008000
28797         OT  4197  TIP3   OH2 28797  -0.834000  15.999400
28798         HT  4197  TIP3    H1 28798   0.417000   1.008000
28799         HT  4197  TIP3    H2 28799   0.417000   1.008000
28800         OT  4198  TIP3   OH2 28800  -0.834000  15.999400
28801         HT  4198  TIP3    H1 28801   0.417000   1.008000
28802         HT  4198  TIP3    H2 28802   0.417000   1.008000
28803         OT  4199  TIP3   OH2 28803  -0.834000  15.999400
28804         HT  4199  TIP3    H1 28804   0.417000   1.008000
28805         HT  4199  TIP3    H2 28805   0.417000   1.008000
28806         OT  4200  TIP3   OH2 28806  -0.834000  15.999400
28807         HT  4200  TIP3    H1 28807   0.417000   1.008000
28808         HT  4200  TIP3    H2 28808   0.417000   1.008000
28809         OT  4201  TIP3   OH2 28809  -0.834000  15.999400
28810         HT  4201  TIP3    H1 28810   0.417000   1.008000
28811         HT  4201  TIP3    H2 28811   0.417000   1.008000
28812         OT  4202  TIP3   OH2 28812  -0.834000  15.999400
28813         HT  4202  TIP3    H1 28813   0.417000   1.008000
28814         HT  4202  TIP3    H2 28814   0.417000   1.008000
28815         OT  4203  TIP3   OH2 28815  -0.834000  15.999400
28816         HT  4203  TIP3    H1 28816   0.417000   1.008000
28817         HT  4203  TIP3    H2 28817   0.417000   1.008000
28818         OT  4204  TIP3   OH2 28818  -0.834000  15.999400
28819         HT  4204  TIP3    H1 28819   0.417000   1.008000
28820         HT  4204  TIP3    H2 28820   0.417000   1.008000
28821         OT  4205  TIP3   OH2 28821  -0.834000  15.999400
28822         HT  4205  TIP3    H1 28822   0.417000   1.008000
28823         HT  4205  TIP3    H2 28823   0.417000   1.008000
28824         OT  4206  TIP3   OH2 28824  -0.834000  15.999400
28825         HT  4206  TIP3    H1 28825   0.417000   1.008000
28826         HT  4206  TIP3    H2 28826   0.417000   1.008000
28827         OT  4207  TIP3   OH2 28827  -0.834000  15.999400
28828         HT  4207  TIP3    H1 28828   0.417000   1.008000
28829         HT  4207  TIP3    H2 28829   0.417000   1.008000
28830         OT  4208  TIP3   OH2 28830  -0.834000  15.999400
28831         HT  4208  TIP3    H1 28831   0.417000   1.008000
28832         HT  4208  TIP3    H2 28832   0.417000   1.008000
28833         OT  4209  TIP3   OH2 28833  -0.834000  15.999400
28834         HT  4209  TIP3    H1 28834   0.417000   1.008000
28835         HT  4209  TIP3    H2 28835   0.417000   1.008000
28836         OT  4210  TIP3   OH2 28836  -0.834000  15.999400
28837         HT  4210  TIP3    H1 28837   0.417000   1.008000
28838         HT  4210  TIP3    H2 28838   0.417000   1.008000
28839         OT  4211  TIP3   OH2 28839  -0.834000  15.999400
28840         HT  4211  TIP3    H1 28840   0.417000   1.008000
28841         HT  4211  TIP3    H2 28841   0.417000   1.008000
28842         OT  4212  TIP3   OH2 28842  -0.834000  15.999400
28843         HT  4212  TIP3    H1 28843   0.417000   1.008000
28844         HT  4212  TIP3    H2 28844   0.417000   1.008000
28845         OT  4213  TIP3   OH2 28845  -0.834000  15.999400
28846         HT  4213  TIP3    H1 28846   0.417000   1.008000
28847         HT  4213  TIP3    H2 28847   0.417000   1.008000
28848         OT  4214  TIP3   OH2 28848  -0.834000  15.999400
28849         HT  4214  TIP3    H1 28849   0.417000   1.008000
28850         HT  4214  TIP3    H2 28850   0.417000   1.008000
28851         OT  4215  TIP3   OH2 28851  -0.834000  15.999400
28852         HT  4215  TIP3    H1 28852   0.417000   1.008000
28853         HT  4215  TIP3    H2 28853   0.417000   1.008000
28854         OT  4216  TIP3   OH2 28854  -0.834000  15.999400
28855         HT  4216  TIP3    H1 28855   0.417000   1.008000
28856         HT  4216  TIP3    H2 28856   0.417000   1.008000
28857         OT  4217  TIP3   OH2 28857  -0.834000  15.999400
28858         HT  4217  TIP3    H1 28858   0.417000   1.008000
28859         HT  4217  TIP3    H2 28859   0.417000   1.008000
28860         OT  4218  TIP3   OH2 28860  -0.834000  15.999400
28861         HT  4218  TIP3    H1 28861   0.417000   1.008000
28862         HT  4218  TIP3    H2 28862   0.417000   1.008000
28863         OT  4219  TIP3   OH2 28863  -0.834000  15.999400
28864         HT  4219  TIP3    H1 28864   0.417000   1.008000
28865         HT  4219  TIP3    H2 28865   0.417000   1.008000
28866         OT  4220  TIP3   OH2 28866  -0.834000  15.999400
28867         HT  4220  TIP3    H1 28867   0.417000   1.008000
28868         HT  4220  TIP3    H2 28868   0.417000   1.008000
28869         OT  4221  TIP3   OH2 28869  -0.834000  15.999400
28870         HT  4221  TIP3    H1 28870   0.417000   1.008000
28871         HT  4221  TIP3    H2 28871   0.417000   1.008000
28872         OT  4222  TIP3   OH2 28872  -0.834000  15.999400
28873         HT  4222  TIP3    H1 28873   0.417000   1.008000
28874         HT  4222  TIP3    H2 28874   0.417000   1.008000
28875         OT  4223  TIP3   OH2 28875  -0.834000  15.999400
28876         HT  4223  TIP3    H1 28876   0.417000   1.008000
28877         HT  4223  TIP3    H2 28877   0.417000   1.008000
28878         OT  4224  TIP3   OH2 28878  -0.834000  15.999400
28879         HT  4224  TIP3    H1 28879   0.417000   1.008000
28880         HT  4224  TIP3    H2 28880   0.417000   1.008000
28881         OT  4225  TIP3   OH2 28881  -0.834000  15.999400
28882         HT  4225  TIP3    H1 28882   0.417000   1.008000
28883         HT  4225  TIP3    H2 28883   0.417000   1.008000
28884         OT  4226  TIP3   OH2 28884  -0.834000  15.999400
28885         HT  4226  TIP3    H1 28885   0.417000   1.008000
28886         HT  4226  TIP3    H2 28886   0.417000   1.008000
28887         OT  4227  TIP3   OH2 28887  -0.834000  15.999400
28888         HT  4227  TIP3    H1 28888   0.417000   1.008000
28889         HT  4227  TIP3    H2 28889   0.417000   1.008000
28890         OT  4228  TIP3   OH2 28890  -0.834000  15.999400
28891         HT  4228  TIP3    H1 28891   0.417000   1.008000
28892         HT  4228  TIP3    H2 28892   0.417000   1.008000
28893         OT  4229  TIP3   OH2 28893  -0.834000  15.999400
28894         HT  4229  TIP3    H1 28894   0.417000   1.008000
28895         HT  4229  TIP3    H2 28895   0.417000   1.008000
28896         OT  4230  TIP3   OH2 28896  -0.834000  15.999400
28897         HT  4230  TIP3    H1 28897   0.417000   1.008000
28898         HT  4230  TIP3    H2 28898   0.417000   1.008000
28899         OT  4231  TIP3   OH2 28899  -0.834000  15.999400
28900         HT  4231  TIP3    H1 28900   0.417000   1.008000
28901         HT  4231  TIP3    H2 28901   0.417000   1.008000
28902         OT  4232  TIP3   OH2 28902  -0.834000  15.999400
28903         HT  4232  TIP3    H1 28903   0.417000   1.008000
28904         HT  4232  TIP3    H2 28904   0.417000   1.008000
28905         OT  4233  TIP3   OH2 28905  -0.834000  15.999400
28906         HT  4233  TIP3    H1 28906   0.417000   1.008000
28907         HT  4233  TIP3    H2 28907   0.417000   1.008000
28908         OT  4234  TIP3   OH2 28908  -0.834000  15.999400
28909         HT  4234  TIP3    H1 28909   0.417000   1.008000
28910         HT  4234  TIP3    H2 28910   0.417000   1.008000
28911         OT  4235  TIP3   OH2 28911  -0.834000  15.999400
28912         HT  4235  TIP3    H1 28912   0.417000   1.008000
28913         HT  4235  TIP3    H2 28913   0.417000   1.008000
28914         OT  4236  TIP3   OH2 28914  -0.834000  15.999400
28915         HT  4236  TIP3    H1 28915   0.417000   1.008000
28916         HT  4236  TIP3    H2 28916   0.417000   1.008000
28917         OT  4237  TIP3   OH2 28917  -0.834000  15.999400
28918         HT  4237  TIP3    H1 28918   0.417000   1.008000
28919         HT  4237  TIP3    H2 28919   0.417000   1.008000
28920         OT  4238  TIP3   OH2 28920  -0.834000  15.999400
28921         HT  4238  TIP3    H1 28921   0.417000   1.008000
28922         HT  4238  TIP3    H2 28922   0.417000   1.008000
28923         OT  4239  TIP3   OH2 28923  -0.834000  15.999400
28924         HT  4239  TIP3    H1 28924   0.417000   1.008000
28925         HT  4239  TIP3    H2 28925   0.417000   1.008000
28926         OT  4240  TIP3   OH2 28926  -0.834000  15.999400
28927         HT  4240  TIP3    H1 28927   0.417000   1.008000
28928         HT  4240  TIP3    H2 28928   0.417000   1.008000
28929         OT  4241  TIP3   OH2 28929  -0.834000  15.999400
28930         HT  4241  TIP3    H1 28930   0.417000   1.008000
28931         HT  4241  TIP3    H2 28931   0.417000   1.008000
28932         OT  4242  TIP3   OH2 28932  -0.834000  15.999400
28933         HT  4242  TIP3    H1 28933   0.417000   1.008000
28934         HT  4242  TIP3    H2 28934   0.417000   1.008000
28935         OT  4243  TIP3   OH2 28935  -0.834000  15.999400
28936         HT  4243  TIP3    H1 28936   0.417000   1.008000
28937         HT  4243  TIP3    H2 28937   0.417000   1.008000
28938         OT  4244  TIP3   OH2 28938  -0.834000  15.999400
28939         HT  4244  TIP3    H1 28939   0.417000   1.008000
28940         HT  4244  TIP3    H2 28940   0.417000   1.008000
28941         OT  4245  TIP3   OH2 28941  -0.834000  15.999400
28942         HT  4245  TIP3    H1 28942   0.417000   1.008000
28943         HT  4245  TIP3    H2 28943   0.417000   1.008000
28944         OT  4246  TIP3   OH2 28944  -0.834000  15.999400
28945         HT  4246  TIP3    H1 28945   0.417000   1.008000
28946         HT  4246  TIP3    H2 28946   0.417000   1.008000
28947         OT  4247  TIP3   OH2 28947  -0.834000  15.999400
28948         HT  4247  TIP3    H1 28948   0.417000   1.008000
28949         HT  4247  TIP3    H2 28949   0.417000   1.008000
28950         OT  4248  TIP3   OH2 28950  -0.834000  15.999400
28951         HT  4248  TIP3    H1 28951   0.417000   1.008000
28952         HT  4248  TIP3    H2 28952   0.417000   1.008000
28953         OT  4249  TIP3   OH2 28953  -0.834000  15.999400
28954         HT  4249  TIP3    H1 28954   0.417000   1.008000
28955         HT  4249  TIP3    H2 28955   0.417000   1.008000
28956         OT  4250  TIP3   OH2 28956  -0.834000  15.999400
28957         HT  4250  TIP3    H1 28957   0.417000   1.008000
28958         HT  4250  TIP3    H2 28958   0.417000   1.008000
28959         OT  4251  TIP3   OH2 28959  -0.834000  15.999400
28960         HT  4251  TIP3    H1 28960   0.417000   1.008000
28961         HT  4251  TIP3    H2 28961   0.417000   1.008000
28962         OT  4252  TIP3   OH2 28962  -0.834000  15.999400
28963         HT  4252  TIP3    H1 28963   0.417000   1.008000
28964         HT  4252  TIP3    H2 28964   0.417000   1.008000
28965         OT  4253  TIP3   OH2 28965  -0.834000  15.999400
28966         HT  4253  TIP3    H1 28966   0.417000   1.008000
28967         HT  4253  TIP3    H2 28967   0.417000   1.008000
28968         OT  4254  TIP3   OH2 28968  -0.834000  15.999400
28969         HT  4254  TIP3    H1 28969   0.417000   1.008000
28970         HT  4254  TIP3    H2 28970   0.417000   1.008000
28971         OT  4255  TIP3   OH2 28971  -0.834000  15.999400
28972         HT  4255  TIP3    H1 28972   0.417000   1.008000
28973         HT  4255  TIP3    H2 28973   0.417000   1.008000
28974         OT  4256  TIP3   OH2 28974  -0.834000  15.999400
28975         HT  4256  TIP3    H1 28975   0.417000   1.008000
28976         HT  4256  TIP3    H2 28976   0.417000   1.008000
28977         OT  4257  TIP3   OH2 28977  -0.834000  15.999400
28978         HT  4257  TIP3    H1 28978   0.417000   1.008000
28979         HT  4257  TIP3    H2 28979   0.417000   1.008000
28980         OT  4258  TIP3   OH2 28980  -0.834000  15.999400
28981         HT  4258  TIP3    H1 28981   0.417000   1.008000
28982         HT  4258  TIP3    H2 28982   0.417000   1.008000
28983         OT  4259  TIP3   OH2 28983  -0.834000  15.999400
28984         HT  4259  TIP3    H1 28984   0.417000   1.008000
28985         HT  4259  TIP3    H2 28985   0.417000   1.008000
28986         OT  4260  TIP3   OH2 28986  -0.834000  15.999400
28987         HT  4260  TIP3    H1 28987   0.417000   1.008000
28988         HT  4260  TIP3    H2 28988   0.417000   1.008000
28989         OT  4261  TIP3   OH2 28989  -0.834000  15.999400
28990         HT  4261  TIP3    H1 28990   0.417000   1.008000
28991         HT  4261  TIP3    H2 28991   0.417000   1.008000
28992         OT  4262  TIP3   OH2 28992  -0.834000  15.999400
28993         HT  4262  TIP3    H1 28993   0.417000   1.008000
28994         HT  4262  TIP3    H2 28994   0.417000   1.008000
28995         OT  4263  TIP3   OH2 28995  -0.834000  15.999400
28996         HT  4263  TIP3    H1 28996   0.417000   1.008000
28997         HT  4263  TIP3    H2 28997   0.417000   1.008000
28998         OT  4264  TIP3   OH2 28998  -0.834000  15.999400
28999         HT  4264  TIP3    H1 28999   0.417000   1.008000
29000         HT  4264  TIP3    H2 29000   0.417000   1.008000
29001         OT  4265  TIP3   OH2 29001  -0.834000  15.999400
29002         HT  4265  TIP3    H1 29002   0.417000   1.008000
29003         HT  4265  TIP3    H2 29003   0.417000   1.008000
29004         OT  4266  TIP3   OH2 29004  -0.834000  15.999400
29005         HT  4266  TIP3    H1 29005   0.417000   1.008000
29006         HT  4266  TIP3    H2 29006   0.417000   1.008000
29007         OT  4267  TIP3   OH2 29007  -0.834000  15.999400
29008         HT  4267  TIP3    H1 29008   0.417000   1.008000
29009         HT  4267  TIP3    H2 29009   0.417000   1.008000
29010         OT  4268  TIP3   OH2 29010  -0.834000  15.999400
29011         HT  4268  TIP3    H1 29011   0.417000   1.008000
29012         HT  4268  TIP3    H2 29012   0.417000   1.008000
29013         OT  4269  TIP3   OH2 29013  -0.834000  15.999400
29014         HT  4269  TIP3    H1 29014   0.417000   1.008000
29015         HT  4269  TIP3    H2 29015   0.417000   1.008000
29016         OT  4270  TIP3   OH2 29016  -0.834000  15.999400
29017         HT  4270  TIP3    H1 29017   0.417000   1.008000
29018         HT  4270  TIP3    H2 29018   0.417000   1.008000
29019         OT  4271  TIP3   OH2 29019  -0.834000  15.999400
29020         HT  4271  TIP3    H1 29020   0.417000   1.008000
29021         HT  4271  TIP3    H2 29021   0.417000   1.008000
29022         OT  4272  TIP3   OH2 29022  -0.834000  15.999400
29023         HT  4272  TIP3    H1 29023   0.417000   1.008000
29024         HT  4272  TIP3    H2 29024   0.417000   1.008000
29025         OT  4273  TIP3   OH2 29025  -0.834000  15.999400
29026         HT  4273  TIP3    H1 29026   0.417000   1.008000
29027         HT  4273  TIP3    H2 29027   0.417000   1.008000
29028         OT  4274  TIP3   OH2 29028  -0.834000  15.999400
29029         HT  4274  TIP3    H1 29029   0.417000   1.008000
29030         HT  4274  TIP3    H2 29030   0.417000   1.008000
29031         OT  4275  TIP3   OH2 29031  -0.834000  15.999400
29032         HT  4275  TIP3    H1 29032   0.417000   1.008000
29033         HT  4275  TIP3    H2 29033   0.417000   1.008000
29034         OT  4276  TIP3   OH2 29034  -0.834000  15.999400
29035         HT  4276  TIP3    H1 29035   0.417000   1.008000
29036         HT  4276  TIP3    H2 29036   0.417000   1.008000
29037         OT  4277  TIP3   OH2 29037  -0.834000  15.999400
29038         HT  4277  TIP3    H1 29038   0.417000   1.008000
29039         HT  4277  TIP3    H2 29039   0.417000   1.008000
29040         OT  4278  TIP3   OH2 29040  -0.834000  15.999400
29041         HT  4278  TIP3    H1 29041   0.417000   1.008000
29042         HT  4278  TIP3    H2 29042   0.417000   1.008000
29043         OT  4279  TIP3   OH2 29043  -0.834000  15.999400
29044         HT  4279  TIP3    H1 29044   0.417000   1.008000
29045         HT  4279  TIP3    H2 29045   0.417000   1.008000
29046         OT  4280  TIP3   OH2 29046  -0.834000  15.999400
29047         HT  4280  TIP3    H1 29047   0.417000   1.008000
29048         HT  4280  TIP3    H2 29048   0.417000   1.008000
29049         OT  4281  TIP3   OH2 29049  -0.834000  15.999400
29050         HT  4281  TIP3    H1 29050   0.417000   1.008000
29051         HT  4281  TIP3    H2 29051   0.417000   1.008000
29052         OT  4282  TIP3   OH2 29052  -0.834000  15.999400
29053         HT  4282  TIP3    H1 29053   0.417000   1.008000
29054         HT  4282  TIP3    H2 29054   0.417000   1.008000
29055         OT  4283  TIP3   OH2 29055  -0.834000  15.999400
29056         HT  4283  TIP3    H1 29056   0.417000   1.008000
29057         HT  4283  TIP3    H2 29057   0.417000   1.008000
29058         OT  4284  TIP3   OH2 29058  -0.834000  15.999400
29059         HT  4284  TIP3    H1 29059   0.417000   1.008000
29060         HT  4284  TIP3    H2 29060   0.417000   1.008000
29061         OT  4285  TIP3   OH2 29061  -0.834000  15.999400
29062         HT  4285  TIP3    H1 29062   0.417000   1.008000
29063         HT  4285  TIP3    H2 29063   0.417000   1.008000
29064         OT  4286  TIP3   OH2 29064  -0.834000  15.999400
29065         HT  4286  TIP3    H1 29065   0.417000   1.008000
29066         HT  4286  TIP3    H2 29066   0.417000   1.008000
29067         OT  4287  TIP3   OH2 29067  -0.834000  15.999400
29068         HT  4287  TIP3    H1 29068   0.417000   1.008000
29069         HT  4287  TIP3    H2 29069   0.417000   1.008000
29070         OT  4288  TIP3   OH2 29070  -0.834000  15.999400
29071         HT  4288  TIP3    H1 29071   0.417000   1.008000
29072         HT  4288  TIP3    H2 29072   0.417000   1.008000
29073         OT  4289  TIP3   OH2 29073  -0.834000  15.999400
29074         HT  4289  TIP3    H1 29074   0.417000   1.008000
29075         HT  4289  TIP3    H2 29075   0.417000   1.008000
29076         OT  4290  TIP3   OH2 29076  -0.834000  15.999400
29077         HT  4290  TIP3    H1 29077   0.417000   1.008000
29078         HT  4290  TIP3    H2 29078   0.417000   1.008000
29079         OT  4291  TIP3   OH2 29079  -0.834000  15.999400
29080         HT  4291  TIP3    H1 29080   0.417000   1.008000
29081         HT  4291  TIP3    H2 29081   0.417000   1.008000
29082         OT  4292  TIP3   OH2 29082  -0.834000  15.999400
29083         HT  4292  TIP3    H1 29083   0.417000   1.008000
29084         HT  4292  TIP3    H2 29084   0.417000   1.008000
29085         OT  4293  TIP3   OH2 29085  -0.834000  15.999400
29086         HT  4293  TIP3    H1 29086   0.417000   1.008000
29087         HT  4293  TIP3    H2 29087   0.417000   1.008000
29088         OT  4294  TIP3   OH2 29088  -0.834000  15.999400
29089         HT  4294  TIP3    H1 29089   0.417000   1.008000
29090         HT  4294  TIP3    H2 29090   0.417000   1.008000
29091         OT  4295  TIP3   OH2 29091  -0.834000  15.999400
29092         HT  4295  TIP3    H1 29092   0.417000   1.008000
29093         HT  4295  TIP3    H2 29093   0.417000   1.008000
29094         OT  4296  TIP3   OH2 29094  -0.834000  15.999400
29095         HT  4296  TIP3    H1 29095   0.417000   1.008000
29096         HT  4296  TIP3    H2 29096   0.417000   1.008000
29097         OT  4297  TIP3   OH2 29097  -0.834000  15.999400
29098         HT  4297  TIP3    H1 29098   0.417000   1.008000
29099         HT  4297  TIP3    H2 29099   0.417000   1.008000
29100         OT  4298  TIP3   OH2 29100  -0.834000  15.999400
29101         HT  4298  TIP3    H1 29101   0.417000   1.008000
29102         HT  4298  TIP3    H2 29102   0.417000   1.008000
29103         OT  4299  TIP3   OH2 29103  -0.834000  15.999400
29104         HT  4299  TIP3    H1 29104   0.417000   1.008000
29105         HT  4299  TIP3    H2 29105   0.417000   1.008000
29106         OT  4300  TIP3   OH2 29106  -0.834000  15.999400
29107         HT  4300  TIP3    H1 29107   0.417000   1.008000
29108         HT  4300  TIP3    H2 29108   0.417000   1.008000
29109         OT  4301  TIP3   OH2 29109  -0.834000  15.999400
29110         HT  4301  TIP3    H1 29110   0.417000   1.008000
29111         HT  4301  TIP3    H2 29111   0.417000   1.008000
29112         OT  4302  TIP3   OH2 29112  -0.834000  15.999400
29113         HT  4302  TIP3    H1 29113   0.417000   1.008000
29114         HT  4302  TIP3    H2 29114   0.417000   1.008000
29115         OT  4303  TIP3   OH2 29115  -0.834000  15.999400
29116         HT  4303  TIP3    H1 29116   0.417000   1.008000
29117         HT  4303  TIP3    H2 29117   0.417000   1.008000
29118         OT  4304  TIP3   OH2 29118  -0.834000  15.999400
29119         HT  4304  TIP3    H1 29119   0.417000   1.008000
29120         HT  4304  TIP3    H2 29120   0.417000   1.008000
29121         OT  4305  TIP3   OH2 29121  -0.834000  15.999400
29122         HT  4305  TIP3    H1 29122   0.417000   1.008000
29123         HT  4305  TIP3    H2 29123   0.417000   1.008000
29124         OT  4306  TIP3   OH2 29124  -0.834000  15.999400
29125         HT  4306  TIP3    H1 29125   0.417000   1.008000
29126         HT  4306  TIP3    H2 29126   0.417000   1.008000
29127         OT  4307  TIP3   OH2 29127  -0.834000  15.999400
29128         HT  4307  TIP3    H1 29128   0.417000   1.008000
29129         HT  4307  TIP3    H2 29129   0.417000   1.008000
29130         OT  4308  TIP3   OH2 29130  -0.834000  15.999400
29131         HT  4308  TIP3    H1 29131   0.417000   1.008000
29132         HT  4308  TIP3    H2 29132   0.417000   1.008000
29133         OT  4309  TIP3   OH2 29133  -0.834000  15.999400
29134         HT  4309  TIP3    H1 29134   0.417000   1.008000
29135         HT  4309  TIP3    H2 29135   0.417000   1.008000
29136         OT  4310  TIP3   OH2 29136  -0.834000  15.999400
29137         HT  4310  TIP3    H1 29137   0.417000   1.008000
29138         HT  4310  TIP3    H2 29138   0.417000   1.008000
29139         OT  4311  TIP3   OH2 29139  -0.834000  15.999400
29140         HT  4311  TIP3    H1 29140   0.417000   1.008000
29141         HT  4311  TIP3    H2 29141   0.417000   1.008000
29142         OT  4312  TIP3   OH2 29142  -0.834000  15.999400
29143         HT  4312  TIP3    H1 29143   0.417000   1.008000
29144         HT  4312  TIP3    H2 29144   0.417000   1.008000
29145         OT  4313  TIP3   OH2 29145  -0.834000  15.999400
29146         HT  4313  TIP3    H1 29146   0.417000   1.008000
29147         HT  4313  TIP3    H2 29147   0.417000   1.008000
29148         OT  4314  TIP3   OH2 29148  -0.834000  15.999400
29149         HT  4314  TIP3    H1 29149   0.417000   1.008000
29150         HT  4314  TIP3    H2 29150   0.417000   1.008000
29151         OT  4315  TIP3   OH2 29151  -0.834000  15.999400
29152         HT  4315  TIP3    H1 29152   0.417000   1.008000
29153         HT  4315  TIP3    H2 29153   0.417000   1.008000
29154         OT  4316  TIP3   OH2 29154  -0.834000  15.999400
29155         HT  4316  TIP3    H1 29155   0.417000   1.008000
29156         HT  4316  TIP3    H2 29156   0.417000   1.008000
29157         OT  4317  TIP3   OH2 29157  -0.834000  15.999400
29158         HT  4317  TIP3    H1 29158   0.417000   1.008000
29159         HT  4317  TIP3    H2 29159   0.417000   1.008000
29160         OT  4318  TIP3   OH2 29160  -0.834000  15.999400
29161         HT  4318  TIP3    H1 29161   0.417000   1.008000
29162         HT  4318  TIP3    H2 29162   0.417000   1.008000
29163         OT  4319  TIP3   OH2 29163  -0.834000  15.999400
29164         HT  4319  TIP3    H1 29164   0.417000   1.008000
29165         HT  4319  TIP3    H2 29165   0.417000   1.008000
29166         OT  4320  TIP3   OH2 29166  -0.834000  15.999400
29167         HT  4320  TIP3    H1 29167   0.417000   1.008000
29168         HT  4320  TIP3    H2 29168   0.417000   1.008000
29169         OT  4321  TIP3   OH2 29169  -0.834000  15.999400
29170         HT  4321  TIP3    H1 29170   0.417000   1.008000
29171         HT  4321  TIP3    H2 29171   0.417000   1.008000
29172         OT  4322  TIP3   OH2 29172  -0.834000  15.999400
29173         HT  4322  TIP3    H1 29173   0.417000   1.008000
29174         HT  4322  TIP3    H2 29174   0.417000   1.008000
29175         OT  4323  TIP3   OH2 29175  -0.834000  15.999400
29176         HT  4323  TIP3    H1 29176   0.417000   1.008000
29177         HT  4323  TIP3    H2 29177   0.417000   1.008000
29178         OT  4324  TIP3   OH2 29178  -0.834000  15.999400
29179         HT  4324  TIP3    H1 29179   0.417000   1.008000
29180         HT  4324  TIP3    H2 29180   0.417000   1.008000
29181         OT  4325  TIP3   OH2 29181  -0.834000  15.999400
29182         HT  4325  TIP3    H1 29182   0.417000   1.008000
29183         HT  4325  TIP3    H2 29183   0.417000   1.008000
29184         OT  4326  TIP3   OH2 29184  -0.834000  15.999400
29185         HT  4326  TIP3    H1 29185   0.417000   1.008000
29186         HT  4326  TIP3    H2 29186   0.417000   1.008000
29187         OT  4327  TIP3   OH2 29187  -0.834000  15.999400
29188         HT  4327  TIP3    H1 29188   0.417000   1.008000
29189         HT  4327  TIP3    H2 29189   0.417000   1.008000
29190         OT  4328  TIP3   OH2 29190  -0.834000  15.999400
29191         HT  4328  TIP3    H1 29191   0.417000   1.008000
29192         HT  4328  TIP3    H2 29192   0.417000   1.008000
29193         OT  4329  TIP3   OH2 29193  -0.834000  15.999400
29194         HT  4329  TIP3    H1 29194   0.417000   1.008000
29195         HT  4329  TIP3    H2 29195   0.417000   1.008000
29196         OT  4330  TIP3   OH2 29196  -0.834000  15.999400
29197         HT  4330  TIP3    H1 29197   0.417000   1.008000
29198         HT  4330  TIP3    H2 29198   0.417000   1.008000
29199         OT  4331  TIP3   OH2 29199  -0.834000  15.999400
29200         HT  4331  TIP3    H1 29200   0.417000   1.008000
29201         HT  4331  TIP3    H2 29201   0.417000   1.008000
29202         OT  4332  TIP3   OH2 29202  -0.834000  15.999400
29203         HT  4332  TIP3    H1 29203   0.417000   1.008000
29204         HT  4332  TIP3    H2 29204   0.417000   1.008000
29205         OT  4333  TIP3   OH2 29205  -0.834000  15.999400
29206         HT  4333  TIP3    H1 29206   0.417000   1.008000
29207         HT  4333  TIP3    H2 29207   0.417000   1.008000
29208         OT  4334  TIP3   OH2 29208  -0.834000  15.999400
29209         HT  4334  TIP3    H1 29209   0.417000   1.008000
29210         HT  4334  TIP3    H2 29210   0.417000   1.008000
29211         OT  4335  TIP3   OH2 29211  -0.834000  15.999400
29212         HT  4335  TIP3    H1 29212   0.417000   1.008000
29213         HT  4335  TIP3    H2 29213   0.417000   1.008000
29214         OT  4336  TIP3   OH2 29214  -0.834000  15.999400
29215         HT  4336  TIP3    H1 29215   0.417000   1.008000
29216         HT  4336  TIP3    H2 29216   0.417000   1.008000
29217         OT  4337  TIP3   OH2 29217  -0.834000  15.999400
29218         HT  4337  TIP3    H1 29218   0.417000   1.008000
29219         HT  4337  TIP3    H2 29219   0.417000   1.008000
29220         OT  4338  TIP3   OH2 29220  -0.834000  15.999400
29221         HT  4338  TIP3    H1 29221   0.417000   1.008000
29222         HT  4338  TIP3    H2 29222   0.417000   1.008000
29223         OT  4339  TIP3   OH2 29223  -0.834000  15.999400
29224         HT  4339  TIP3    H1 29224   0.417000   1.008000
29225         HT  4339  TIP3    H2 29225   0.417000   1.008000
29226         OT  4340  TIP3   OH2 29226  -0.834000  15.999400
29227         HT  4340  TIP3    H1 29227   0.417000   1.008000
29228         HT  4340  TIP3    H2 29228   0.417000   1.008000
29229         OT  4341  TIP3   OH2 29229  -0.834000  15.999400
29230         HT  4341  TIP3    H1 29230   0.417000   1.008000
29231         HT  4341  TIP3    H2 29231   0.417000   1.008000
29232         OT  4342  TIP3   OH2 29232  -0.834000  15.999400
29233         HT  4342  TIP3    H1 29233   0.417000   1.008000
29234         HT  4342  TIP3    H2 29234   0.417000   1.008000
29235         OT  4343  TIP3   OH2 29235  -0.834000  15.999400
29236         HT  4343  TIP3    H1 29236   0.417000   1.008000
29237         HT  4343  TIP3    H2 29237   0.417000   1.008000
29238         OT  4344  TIP3   OH2 29238  -0.834000  15.999400
29239         HT  4344  TIP3    H1 29239   0.417000   1.008000
29240         HT  4344  TIP3    H2 29240   0.417000   1.008000
29241         OT  4345  TIP3   OH2 29241  -0.834000  15.999400
29242         HT  4345  TIP3    H1 29242   0.417000   1.008000
29243         HT  4345  TIP3    H2 29243   0.417000   1.008000
29244         OT  4346  TIP3   OH2 29244  -0.834000  15.999400
29245         HT  4346  TIP3    H1 29245   0.417000   1.008000
29246         HT  4346  TIP3    H2 29246   0.417000   1.008000
29247         OT  4347  TIP3   OH2 29247  -0.834000  15.999400
29248         HT  4347  TIP3    H1 29248   0.417000   1.008000
29249         HT  4347  TIP3    H2 29249   0.417000   1.008000
29250         OT  4348  TIP3   OH2 29250  -0.834000  15.999400
29251         HT  4348  TIP3    H1 29251   0.417000   1.008000
29252         HT  4348  TIP3    H2 29252   0.417000   1.008000
29253         OT  4349  TIP3   OH2 29253  -0.834000  15.999400
29254         HT  4349  TIP3    H1 29254   0.417000   1.008000
29255         HT  4349  TIP3    H2 29255   0.417000   1.008000
29256         OT  4350  TIP3   OH2 29256  -0.834000  15.999400
29257         HT  4350  TIP3    H1 29257   0.417000   1.008000
29258         HT  4350  TIP3    H2 29258   0.417000   1.008000
29259         OT  4351  TIP3   OH2 29259  -0.834000  15.999400
29260         HT  4351  TIP3    H1 29260   0.417000   1.008000
29261         HT  4351  TIP3    H2 29261   0.417000   1.008000
29262         OT  4352  TIP3   OH2 29262  -0.834000  15.999400
29263         HT  4352  TIP3    H1 29263   0.417000   1.008000
29264         HT  4352  TIP3    H2 29264   0.417000   1.008000
29265         OT  4353  TIP3   OH2 29265  -0.834000  15.999400
29266         HT  4353  TIP3    H1 29266   0.417000   1.008000
29267         HT  4353  TIP3    H2 29267   0.417000   1.008000
29268         OT  4354  TIP3   OH2 29268  -0.834000  15.999400
29269         HT  4354  TIP3    H1 29269   0.417000   1.008000
29270         HT  4354  TIP3    H2 29270   0.417000   1.008000
29271         OT  4355  TIP3   OH2 29271  -0.834000  15.999400
29272         HT  4355  TIP3    H1 29272   0.417000   1.008000
29273         HT  4355  TIP3    H2 29273   0.417000   1.008000
29274         OT  4356  TIP3   OH2 29274  -0.834000  15.999400
29275         HT  4356  TIP3    H1 29275   0.417000   1.008000
29276         HT  4356  TIP3    H2 29276   0.417000   1.008000
29277         OT  4357  TIP3   OH2 29277  -0.834000  15.999400
29278         HT  4357  TIP3    H1 29278   0.417000   1.008000
29279         HT  4357  TIP3    H2 29279   0.417000   1.008000
29280         OT  4358  TIP3   OH2 29280  -0.834000  15.999400
29281         HT  4358  TIP3    H1 29281   0.417000   1.008000
29282         HT  4358  TIP3    H2 29282   0.417000   1.008000
29283         OT  4359  TIP3   OH2 29283  -0.834000  15.999400
29284         HT  4359  TIP3    H1 29284   0.417000   1.008000
29285         HT  4359  TIP3    H2 29285   0.417000   1.008000
29286         OT  4360  TIP3   OH2 29286  -0.834000  15.999400
29287         HT  4360  TIP3    H1 29287   0.417000   1.008000
29288         HT  4360  TIP3    H2 29288   0.417000   1.008000
29289         OT  4361  TIP3   OH2 29289  -0.834000  15.999400
29290         HT  4361  TIP3    H1 29290   0.417000   1.008000
29291         HT  4361  TIP3    H2 29291   0.417000   1.008000
29292         OT  4362  TIP3   OH2 29292  -0.834000  15.999400
29293         HT  4362  TIP3    H1 29293   0.417000   1.008000
29294         HT  4362  TIP3    H2 29294   0.417000   1.008000
29295         OT  4363  TIP3   OH2 29295  -0.834000  15.999400
29296         HT  4363  TIP3    H1 29296   0.417000   1.008000
29297         HT  4363  TIP3    H2 29297   0.417000   1.008000
29298         OT  4364  TIP3   OH2 29298  -0.834000  15.999400
29299         HT  4364  TIP3    H1 29299   0.417000   1.008000
29300         HT  4364  TIP3    H2 29300   0.417000   1.008000
29301         OT  4365  TIP3   OH2 29301  -0.834000  15.999400
29302         HT  4365  TIP3    H1 29302   0.417000   1.008000
29303         HT  4365  TIP3    H2 29303   0.417000   1.008000
29304         OT  4366  TIP3   OH2 29304  -0.834000  15.999400
29305         HT  4366  TIP3    H1 29305   0.417000   1.008000
29306         HT  4366  TIP3    H2 29306   0.417000   1.008000
29307         OT  4367  TIP3   OH2 29307  -0.834000  15.999400
29308         HT  4367  TIP3    H1 29308   0.417000   1.008000
29309         HT  4367  TIP3    H2 29309   0.417000   1.008000
29310         OT  4368  TIP3   OH2 29310  -0.834000  15.999400
29311         HT  4368  TIP3    H1 29311   0.417000   1.008000
29312         HT  4368  TIP3    H2 29312   0.417000   1.008000
29313         OT  4369  TIP3   OH2 29313  -0.834000  15.999400
29314         HT  4369  TIP3    H1 29314   0.417000   1.008000
29315         HT  4369  TIP3    H2 29315   0.417000   1.008000
29316         OT  4370  TIP3   OH2 29316  -0.834000  15.999400
29317         HT  4370  TIP3    H1 29317   0.417000   1.008000
29318         HT  4370  TIP3    H2 29318   0.417000   1.008000
29319         OT  4371  TIP3   OH2 29319  -0.834000  15.999400
29320         HT  4371  TIP3    H1 29320   0.417000   1.008000
29321         HT  4371  TIP3    H2 29321   0.417000   1.008000
29322         OT  4372  TIP3   OH2 29322  -0.834000  15.999400
29323         HT  4372  TIP3    H1 29323   0.417000   1.008000
29324         HT  4372  TIP3    H2 29324   0.417000   1.008000
29325         OT  4373  TIP3   OH2 29325  -0.834000  15.999400
29326         HT  4373  TIP3    H1 29326   0.417000   1.008000
29327         HT  4373  TIP3    H2 29327   0.417000   1.008000
29328         OT  4374  TIP3   OH2 29328  -0.834000  15.999400
29329         HT  4374  TIP3    H1 29329   0.417000   1.008000
29330         HT  4374  TIP3    H2 29330   0.417000   1.008000
29331         OT  4375  TIP3   OH2 29331  -0.834000  15.999400
29332         HT  4375  TIP3    H1 29332   0.417000   1.008000
29333         HT  4375  TIP3    H2 29333   0.417000   1.008000
29334         OT  4376  TIP3   OH2 29334  -0.834000  15.999400
29335         HT  4376  TIP3    H1 29335   0.417000   1.008000
29336         HT  4376  TIP3    H2 29336   0.417000   1.008000
29337         OT  4377  TIP3   OH2 29337  -0.834000  15.999400
29338         HT  4377  TIP3    H1 29338   0.417000   1.008000
29339         HT  4377  TIP3    H2 29339   0.417000   1.008000
29340         OT  4378  TIP3   OH2 29340  -0.834000  15.999400
29341         HT  4378  TIP3    H1 29341   0.417000   1.008000
29342         HT  4378  TIP3    H2 29342   0.417000   1.008000
29343         OT  4379  TIP3   OH2 29343  -0.834000  15.999400
29344         HT  4379  TIP3    H1 29344   0.417000   1.008000
29345         HT  4379  TIP3    H2 29345   0.417000   1.008000
29346         OT  4380  TIP3   OH2 29346  -0.834000  15.999400
29347         HT  4380  TIP3    H1 29347   0.417000   1.008000
29348         HT  4380  TIP3    H2 29348   0.417000   1.008000
29349         OT  4381  TIP3   OH2 29349  -0.834000  15.999400
29350         HT  4381  TIP3    H1 29350   0.417000   1.008000
29351         HT  4381  TIP3    H2 29351   0.417000   1.008000
29352         OT  4382  TIP3   OH2 29352  -0.834000  15.999400
29353         HT  4382  TIP3    H1 29353   0.417000   1.008000
29354         HT  4382  TIP3    H2 29354   0.417000   1.008000
29355         OT  4383  TIP3   OH2 29355  -0.834000  15.999400
29356         HT  4383  TIP3    H1 29356   0.417000   1.008000
29357         HT  4383  TIP3    H2 29357   0.417000   1.008000
29358         OT  4384  TIP3   OH2 29358  -0.834000  15.999400
29359         HT  4384  TIP3    H1 29359   0.417000   1.008000
29360         HT  4384  TIP3    H2 29360   0.417000   1.008000
29361         OT  4385  TIP3   OH2 29361  -0.834000  15.999400
29362         HT  4385  TIP3    H1 29362   0.417000   1.008000
29363         HT  4385  TIP3    H2 29363   0.417000   1.008000
29364         OT  4386  TIP3   OH2 29364  -0.834000  15.999400
29365         HT  4386  TIP3    H1 29365   0.417000   1.008000
29366         HT  4386  TIP3    H2 29366   0.417000   1.008000
29367         OT  4387  TIP3   OH2 29367  -0.834000  15.999400
29368         HT  4387  TIP3    H1 29368   0.417000   1.008000
29369         HT  4387  TIP3    H2 29369   0.417000   1.008000
29370         OT  4388  TIP3   OH2 29370  -0.834000  15.999400
29371         HT  4388  TIP3    H1 29371   0.417000   1.008000
29372         HT  4388  TIP3    H2 29372   0.417000   1.008000
29373         OT  4389  TIP3   OH2 29373  -0.834000  15.999400
29374         HT  4389  TIP3    H1 29374   0.417000   1.008000
29375         HT  4389  TIP3    H2 29375   0.417000   1.008000
29376         OT  4390  TIP3   OH2 29376  -0.834000  15.999400
29377         HT  4390  TIP3    H1 29377   0.417000   1.008000
29378         HT  4390  TIP3    H2 29378   0.417000   1.008000
29379         OT  4391  TIP3   OH2 29379  -0.834000  15.999400
29380         HT  4391  TIP3    H1 29380   0.417000   1.008000
29381         HT  4391  TIP3    H2 29381   0.417000   1.008000
29382         OT  4392  TIP3   OH2 29382  -0.834000  15.999400
29383         HT  4392  TIP3    H1 29383   0.417000   1.008000
29384         HT  4392  TIP3    H2 29384   0.417000   1.008000
29385         OT  4393  TIP3   OH2 29385  -0.834000  15.999400
29386         HT  4393  TIP3    H1 29386   0.417000   1.008000
29387         HT  4393  TIP3    H2 29387   0.417000   1.008000
29388         OT  4394  TIP3   OH2 29388  -0.834000  15.999400
29389         HT  4394  TIP3    H1 29389   0.417000   1.008000
29390         HT  4394  TIP3    H2 29390   0.417000   1.008000
29391         OT  4395  TIP3   OH2 29391  -0.834000  15.999400
29392         HT  4395  TIP3    H1 29392   0.417000   1.008000
29393         HT  4395  TIP3    H2 29393   0.417000   1.008000
29394         OT  4396  TIP3   OH2 29394  -0.834000  15.999400
29395         HT  4396  TIP3    H1 29395   0.417000   1.008000
29396         HT  4396  TIP3    H2 29396   0.417000   1.008000
29397         OT  4397  TIP3   OH2 29397  -0.834000  15.999400
29398         HT  4397  TIP3    H1 29398   0.417000   1.008000
29399         HT  4397  TIP3    H2 29399   0.417000   1.008000
29400         OT  4398  TIP3   OH2 29400  -0.834000  15.999400
29401         HT  4398  TIP3    H1 29401   0.417000   1.008000
29402         HT  4398  TIP3    H2 29402   0.417000   1.008000
29403         OT  4399  TIP3   OH2 29403  -0.834000  15.999400
29404         HT  4399  TIP3    H1 29404   0.417000   1.008000
29405         HT  4399  TIP3    H2 29405   0.417000   1.008000
29406         OT  4400  TIP3   OH2 29406  -0.834000  15.999400
29407         HT  4400  TIP3    H1 29407   0.417000   1.008000
29408         HT  4400  TIP3    H2 29408   0.417000   1.008000
29409         OT  4401  TIP3   OH2 29409  -0.834000  15.999400
29410         HT  4401  TIP3    H1 29410   0.417000   1.008000
29411         HT  4401  TIP3    H2 29411   0.417000   1.008000
29412         OT  4402  TIP3   OH2 29412  -0.834000  15.999400
29413         HT  4402  TIP3    H1 29413   0.417000   1.008000
29414         HT  4402  TIP3    H2 29414   0.417000   1.008000
29415         OT  4403  TIP3   OH2 29415  -0.834000  15.999400
29416         HT  4403  TIP3    H1 29416   0.417000   1.008000
29417         HT  4403  TIP3    H2 29417   0.417000   1.008000
29418         OT  4404  TIP3   OH2 29418  -0.834000  15.999400
29419         HT  4404  TIP3    H1 29419   0.417000   1.008000
29420         HT  4404  TIP3    H2 29420   0.417000   1.008000
29421         OT  4405  TIP3   OH2 29421  -0.834000  15.999400
29422         HT  4405  TIP3    H1 29422   0.417000   1.008000
29423         HT  4405  TIP3    H2 29423   0.417000   1.008000
29424         OT  4406  TIP3   OH2 29424  -0.834000  15.999400
29425         HT  4406  TIP3    H1 29425   0.417000   1.008000
29426         HT  4406  TIP3    H2 29426   0.417000   1.008000
29427         OT  4407  TIP3   OH2 29427  -0.834000  15.999400
29428         HT  4407  TIP3    H1 29428   0.417000   1.008000
29429         HT  4407  TIP3    H2 29429   0.417000   1.008000
29430         OT  4408  TIP3   OH2 29430  -0.834000  15.999400
29431         HT  4408  TIP3    H1 29431   0.417000   1.008000
29432         HT  4408  TIP3    H2 29432   0.417000   1.008000
29433         OT  4409  TIP3   OH2 29433  -0.834000  15.999400
29434         HT  4409  TIP3    H1 29434   0.417000   1.008000
29435         HT  4409  TIP3    H2 29435   0.417000   1.008000
29436         OT  4410  TIP3   OH2 29436  -0.834000  15.999400
29437         HT  4410  TIP3    H1 29437   0.417000   1.008000
29438         HT  4410  TIP3    H2 29438   0.417000   1.008000
29439         OT  4411  TIP3   OH2 29439  -0.834000  15.999400
29440         HT  4411  TIP3    H1 29440   0.417000   1.008000
29441         HT  4411  TIP3    H2 29441   0.417000   1.008000
29442         OT  4412  TIP3   OH2 29442  -0.834000  15.999400
29443         HT  4412  TIP3    H1 29443   0.417000   1.008000
29444         HT  4412  TIP3    H2 29444   0.417000   1.008000
29445         OT  4413  TIP3   OH2 29445  -0.834000  15.999400
29446         HT  4413  TIP3    H1 29446   0.417000   1.008000
29447         HT  4413  TIP3    H2 29447   0.417000   1.008000
29448         OT  4414  TIP3   OH2 29448  -0.834000  15.999400
29449         HT  4414  TIP3    H1 29449   0.417000   1.008000
29450         HT  4414  TIP3    H2 29450   0.417000   1.008000
29451         OT  4415  TIP3   OH2 29451  -0.834000  15.999400
29452         HT  4415  TIP3    H1 29452   0.417000   1.008000
29453         HT  4415  TIP3    H2 29453   0.417000   1.008000
29454         OT  4416  TIP3   OH2 29454  -0.834000  15.999400
29455         HT  4416  TIP3    H1 29455   0.417000   1.008000
29456         HT  4416  TIP3    H2 29456   0.417000   1.008000
29457         OT  4417  TIP3   OH2 29457  -0.834000  15.999400
29458         HT  4417  TIP3    H1 29458   0.417000   1.008000
29459         HT  4417  TIP3    H2 29459   0.417000   1.008000
29460         OT  4418  TIP3   OH2 29460  -0.834000  15.999400
29461         HT  4418  TIP3    H1 29461   0.417000   1.008000
29462         HT  4418  TIP3    H2 29462   0.417000   1.008000
29463         OT  4419  TIP3   OH2 29463  -0.834000  15.999400
29464         HT  4419  TIP3    H1 29464   0.417000   1.008000
29465         HT  4419  TIP3    H2 29465   0.417000   1.008000
29466         OT  4420  TIP3   OH2 29466  -0.834000  15.999400
29467         HT  4420  TIP3    H1 29467   0.417000   1.008000
29468         HT  4420  TIP3    H2 29468   0.417000   1.008000
29469         OT  4421  TIP3   OH2 29469  -0.834000  15.999400
29470         HT  4421  TIP3    H1 29470   0.417000   1.008000
29471         HT  4421  TIP3    H2 29471   0.417000   1.008000
29472         OT  4422  TIP3   OH2 29472  -0.834000  15.999400
29473         HT  4422  TIP3    H1 29473   0.417000   1.008000
29474         HT  4422  TIP3    H2 29474   0.417000   1.008000
29475         OT  4423  TIP3   OH2 29475  -0.834000  15.999400
29476         HT  4423  TIP3    H1 29476   0.417000   1.008000
29477         HT  4423  TIP3    H2 29477   0.417000   1.008000
29478         OT  4424  TIP3   OH2 29478  -0.834000  15.999400
29479         HT  4424  TIP3    H1 29479   0.417000   1.008000
29480         HT  4424  TIP3    H2 29480   0.417000   1.008000
29481         OT  4425  TIP3   OH2 29481  -0.834000  15.999400
29482         HT  4425  TIP3    H1 29482   0.417000   1.008000
29483         HT  4425  TIP3    H2 29483   0.417000   1.008000
29484         OT  4426  TIP3   OH2 29484  -0.834000  15.999400
29485         HT  4426  TIP3    H1 29485   0.417000   1.008000
29486         HT  4426  TIP3    H2 29486   0.417000   1.008000
29487         OT  4427  TIP3   OH2 29487  -0.834000  15.999400
29488         HT  4427  TIP3    H1 29488   0.417000   1.008000
29489         HT  4427  TIP3    H2 29489   0.417000   1.008000
29490         OT  4428  TIP3   OH2 29490  -0.834000  15.999400
29491         HT  4428  TIP3    H1 29491   0.417000   1.008000
29492         HT  4428  TIP3    H2 29492   0.417000   1.008000
29493         OT  4429  TIP3   OH2 29493  -0.834000  15.999400
29494         HT  4429  TIP3    H1 29494   0.417000   1.008000
29495         HT  4429  TIP3    H2 29495   0.417000   1.008000
29496         OT  4430  TIP3   OH2 29496  -0.834000  15.999400
29497         HT  4430  TIP3    H1 29497   0.417000   1.008000
29498         HT  4430  TIP3    H2 29498   0.417000   1.008000
29499         OT  4431  TIP3   OH2 29499  -0.834000  15.999400
29500         HT  4431  TIP3    H1 29500   0.417000   1.008000
29501         HT  4431  TIP3    H2 29501   0.417000   1.008000
29502         OT  4432  TIP3   OH2 29502  -0.834000  15.999400
29503         HT  4432  TIP3    H1 29503   0.417000   1.008000
29504         HT  4432  TIP3    H2 29504   0.417000   1.008000
29505         OT  4433  TIP3   OH2 29505  -0.834000  15.999400
29506         HT  4433  TIP3    H1 29506   0.417000   1.008000
29507         HT  4433  TIP3    H2 29507   0.417000   1.008000
29508         OT  4434  TIP3   OH2 29508  -0.834000  15.999400
29509         HT  4434  TIP3    H1 29509   0.417000   1.008000
29510         HT  4434  TIP3    H2 29510   0.417000   1.008000
29511         OT  4435  TIP3   OH2 29511  -0.834000  15.999400
29512         HT  4435  TIP3    H1 29512   0.417000   1.008000
29513         HT  4435  TIP3    H2 29513   0.417000   1.008000
29514         OT  4436  TIP3   OH2 29514  -0.834000  15.999400
29515         HT  4436  TIP3    H1 29515   0.417000   1.008000
29516         HT  4436  TIP3    H2 29516   0.417000   1.008000
29517         OT  4437  TIP3   OH2 29517  -0.834000  15.999400
29518         HT  4437  TIP3    H1 29518   0.417000   1.008000
29519         HT  4437  TIP3    H2 29519   0.417000   1.008000
29520         OT  4438  TIP3   OH2 29520  -0.834000  15.999400
29521         HT  4438  TIP3    H1 29521   0.417000   1.008000
29522         HT  4438  TIP3    H2 29522   0.417000   1.008000
29523         OT  4439  TIP3   OH2 29523  -0.834000  15.999400
29524         HT  4439  TIP3    H1 29524   0.417000   1.008000
29525         HT  4439  TIP3    H2 29525   0.417000   1.008000
29526         OT  4440  TIP3   OH2 29526  -0.834000  15.999400
29527         HT  4440  TIP3    H1 29527   0.417000   1.008000
29528         HT  4440  TIP3    H2 29528   0.417000   1.008000
29529         OT  4441  TIP3   OH2 29529  -0.834000  15.999400
29530         HT  4441  TIP3    H1 29530   0.417000   1.008000
29531         HT  4441  TIP3    H2 29531   0.417000   1.008000
29532         OT  4442  TIP3   OH2 29532  -0.834000  15.999400
29533         HT  4442  TIP3    H1 29533   0.417000   1.008000
29534         HT  4442  TIP3    H2 29534   0.417000   1.008000
29535         OT  4443  TIP3   OH2 29535  -0.834000  15.999400
29536         HT  4443  TIP3    H1 29536   0.417000   1.008000
29537         HT  4443  TIP3    H2 29537   0.417000   1.008000
29538         OT  4444  TIP3   OH2 29538  -0.834000  15.999400
29539         HT  4444  TIP3    H1 29539   0.417000   1.008000
29540         HT  4444  TIP3    H2 29540   0.417000   1.008000
29541         OT  4445  TIP3   OH2 29541  -0.834000  15.999400
29542         HT  4445  TIP3    H1 29542   0.417000   1.008000
29543         HT  4445  TIP3    H2 29543   0.417000   1.008000
29544         OT  4446  TIP3   OH2 29544  -0.834000  15.999400
29545         HT  4446  TIP3    H1 29545   0.417000   1.008000
29546         HT  4446  TIP3    H2 29546   0.417000   1.008000
29547         OT  4447  TIP3   OH2 29547  -0.834000  15.999400
29548         HT  4447  TIP3    H1 29548   0.417000   1.008000
29549         HT  4447  TIP3    H2 29549   0.417000   1.008000
29550         OT  4448  TIP3   OH2 29550  -0.834000  15.999400
29551         HT  4448  TIP3    H1 29551   0.417000   1.008000
29552         HT  4448  TIP3    H2 29552   0.417000   1.008000
29553         OT  4449  TIP3   OH2 29553  -0.834000  15.999400
29554         HT  4449  TIP3    H1 29554   0.417000   1.008000
29555         HT  4449  TIP3    H2 29555   0.417000   1.008000
29556         OT  4450  TIP3   OH2 29556  -0.834000  15.999400
29557         HT  4450  TIP3    H1 29557   0.417000   1.008000
29558         HT  4450  TIP3    H2 29558   0.417000   1.008000
29559         OT  4451  TIP3   OH2 29559  -0.834000  15.999400
29560         HT  4451  TIP3    H1 29560   0.417000   1.008000
29561         HT  4451  TIP3    H2 29561   0.417000   1.008000
29562         OT  4452  TIP3   OH2 29562  -0.834000  15.999400
29563         HT  4452  TIP3    H1 29563   0.417000   1.008000
29564         HT  4452  TIP3    H2 29564   0.417000   1.008000
29565         OT  4453  TIP3   OH2 29565  -0.834000  15.999400
29566         HT  4453  TIP3    H1 29566   0.417000   1.008000
29567         HT  4453  TIP3    H2 29567   0.417000   1.008000
29568         OT  4454  TIP3   OH2 29568  -0.834000  15.999400
29569         HT  4454  TIP3    H1 29569   0.417000   1.008000
29570         HT  4454  TIP3    H2 29570   0.417000   1.008000
29571         OT  4455  TIP3   OH2 29571  -0.834000  15.999400
29572         HT  4455  TIP3    H1 29572   0.417000   1.008000
29573         HT  4455  TIP3    H2 29573   0.417000   1.008000
29574         OT  4456  TIP3   OH2 29574  -0.834000  15.999400
29575         HT  4456  TIP3    H1 29575   0.417000   1.008000
29576         HT  4456  TIP3    H2 29576   0.417000   1.008000
29577         OT  4457  TIP3   OH2 29577  -0.834000  15.999400
29578         HT  4457  TIP3    H1 29578   0.417000   1.008000
29579         HT  4457  TIP3    H2 29579   0.417000   1.008000
29580         OT  4458  TIP3   OH2 29580  -0.834000  15.999400
29581         HT  4458  TIP3    H1 29581   0.417000   1.008000
29582         HT  4458  TIP3    H2 29582   0.417000   1.008000
29583         OT  4459  TIP3   OH2 29583  -0.834000  15.999400
29584         HT  4459  TIP3    H1 29584   0.417000   1.008000
29585         HT  4459  TIP3    H2 29585   0.417000   1.008000
29586         OT  4460  TIP3   OH2 29586  -0.834000  15.999400
29587         HT  4460  TIP3    H1 29587   0.417000   1.008000
29588         HT  4460  TIP3    H2 29588   0.417000   1.008000
29589         OT  4461  TIP3   OH2 29589  -0.834000  15.999400
29590         HT  4461  TIP3    H1 29590   0.417000   1.008000
29591         HT  4461  TIP3    H2 29591   0.417000   1.008000
29592         OT  4462  TIP3   OH2 29592  -0.834000  15.999400
29593         HT  4462  TIP3    H1 29593   0.417000   1.008000
29594         HT  4462  TIP3    H2 29594   0.417000   1.008000
29595         OT  4463  TIP3   OH2 29595  -0.834000  15.999400
29596         HT  4463  TIP3    H1 29596   0.417000   1.008000
29597         HT  4463  TIP3    H2 29597   0.417000   1.008000
29598         OT  4464  TIP3   OH2 29598  -0.834000  15.999400
29599         HT  4464  TIP3    H1 29599   0.417000   1.008000
29600         HT  4464  TIP3    H2 29600   0.417000   1.008000
29601         OT  4465  TIP3   OH2 29601  -0.834000  15.999400
29602         HT  4465  TIP3    H1 29602   0.417000   1.008000
29603         HT  4465  TIP3    H2 29603   0.417000   1.008000
29604         OT  4466  TIP3   OH2 29604  -0.834000  15.999400
29605         HT  4466  TIP3    H1 29605   0.417000   1.008000
29606         HT  4466  TIP3    H2 29606   0.417000   1.008000
29607         OT  4467  TIP3   OH2 29607  -0.834000  15.999400
29608         HT  4467  TIP3    H1 29608   0.417000   1.008000
29609         HT  4467  TIP3    H2 29609   0.417000   1.008000
29610         OT  4468  TIP3   OH2 29610  -0.834000  15.999400
29611         HT  4468  TIP3    H1 29611   0.417000   1.008000
29612         HT  4468  TIP3    H2 29612   0.417000   1.008000
29613         OT  4469  TIP3   OH2 29613  -0.834000  15.999400
29614         HT  4469  TIP3    H1 29614   0.417000   1.008000
29615         HT  4469  TIP3    H2 29615   0.417000   1.008000
29616         OT  4470  TIP3   OH2 29616  -0.834000  15.999400
29617         HT  4470  TIP3    H1 29617   0.417000   1.008000
29618         HT  4470  TIP3    H2 29618   0.417000   1.008000
29619         OT  4471  TIP3   OH2 29619  -0.834000  15.999400
29620         HT  4471  TIP3    H1 29620   0.417000   1.008000
29621         HT  4471  TIP3    H2 29621   0.417000   1.008000
29622         OT  4472  TIP3   OH2 29622  -0.834000  15.999400
29623         HT  4472  TIP3    H1 29623   0.417000   1.008000
29624         HT  4472  TIP3    H2 29624   0.417000   1.008000
29625         OT  4473  TIP3   OH2 29625  -0.834000  15.999400
29626         HT  4473  TIP3    H1 29626   0.417000   1.008000
29627         HT  4473  TIP3    H2 29627   0.417000   1.008000
29628         OT  4474  TIP3   OH2 29628  -0.834000  15.999400
29629         HT  4474  TIP3    H1 29629   0.417000   1.008000
29630         HT  4474  TIP3    H2 29630   0.417000   1.008000
29631         OT  4475  TIP3   OH2 29631  -0.834000  15.999400
29632         HT  4475  TIP3    H1 29632   0.417000   1.008000
29633         HT  4475  TIP3    H2 29633   0.417000   1.008000
29634         OT  4476  TIP3   OH2 29634  -0.834000  15.999400
29635         HT  4476  TIP3    H1 29635   0.417000   1.008000
29636         HT  4476  TIP3    H2 29636   0.417000   1.008000
29637         OT  4477  TIP3   OH2 29637  -0.834000  15.999400
29638         HT  4477  TIP3    H1 29638   0.417000   1.008000
29639         HT  4477  TIP3    H2 29639   0.417000   1.008000
29640         OT  4478  TIP3   OH2 29640  -0.834000  15.999400
29641         HT  4478  TIP3    H1 29641   0.417000   1.008000
29642         HT  4478  TIP3    H2 29642   0.417000   1.008000
29643         OT  4479  TIP3   OH2 29643  -0.834000  15.999400
29644         HT  4479  TIP3    H1 29644   0.417000   1.008000
29645         HT  4479  TIP3    H2 29645   0.417000   1.008000
29646         OT  4480  TIP3   OH2 29646  -0.834000  15.999400
29647         HT  4480  TIP3    H1 29647   0.417000   1.008000
29648         HT  4480  TIP3    H2 29648   0.417000   1.008000
29649         OT  4481  TIP3   OH2 29649  -0.834000  15.999400
29650         HT  4481  TIP3    H1 29650   0.417000   1.008000
29651         HT  4481  TIP3    H2 29651   0.417000   1.008000
29652         OT  4482  TIP3   OH2 29652  -0.834000  15.999400
29653         HT  4482  TIP3    H1 29653   0.417000   1.008000
29654         HT  4482  TIP3    H2 29654   0.417000   1.008000
29655         OT  4483  TIP3   OH2 29655  -0.834000  15.999400
29656         HT  4483  TIP3    H1 29656   0.417000   1.008000
29657         HT  4483  TIP3    H2 29657   0.417000   1.008000
29658         OT  4484  TIP3   OH2 29658  -0.834000  15.999400
29659         HT  4484  TIP3    H1 29659   0.417000   1.008000
29660         HT  4484  TIP3    H2 29660   0.417000   1.008000
29661         OT  4485  TIP3   OH2 29661  -0.834000  15.999400
29662         HT  4485  TIP3    H1 29662   0.417000   1.008000
29663         HT  4485  TIP3    H2 29663   0.417000   1.008000
29664         OT  4486  TIP3   OH2 29664  -0.834000  15.999400
29665         HT  4486  TIP3    H1 29665   0.417000   1.008000
29666         HT  4486  TIP3    H2 29666   0.417000   1.008000
29667         OT  4487  TIP3   OH2 29667  -0.834000  15.999400
29668         HT  4487  TIP3    H1 29668   0.417000   1.008000
29669         HT  4487  TIP3    H2 29669   0.417000   1.008000
29670         OT  4488  TIP3   OH2 29670  -0.834000  15.999400
29671         HT  4488  TIP3    H1 29671   0.417000   1.008000
29672         HT  4488  TIP3    H2 29672   0.417000   1.008000
29673         OT  4489  TIP3   OH2 29673  -0.834000  15.999400
29674         HT  4489  TIP3    H1 29674   0.417000   1.008000
29675         HT  4489  TIP3    H2 29675   0.417000   1.008000
29676         OT  4490  TIP3   OH2 29676  -0.834000  15.999400
29677         HT  4490  TIP3    H1 29677   0.417000   1.008000
29678         HT  4490  TIP3    H2 29678   0.417000   1.008000
29679         OT  4491  TIP3   OH2 29679  -0.834000  15.999400
29680         HT  4491  TIP3    H1 29680   0.417000   1.008000
29681         HT  4491  TIP3    H2 29681   0.417000   1.008000
29682         OT  4492  TIP3   OH2 29682  -0.834000  15.999400
29683         HT  4492  TIP3    H1 29683   0.417000   1.008000
29684         HT  4492  TIP3    H2 29684   0.417000   1.008000
29685         OT  4493  TIP3   OH2 29685  -0.834000  15.999400
29686         HT  4493  TIP3    H1 29686   0.417000   1.008000
29687         HT  4493  TIP3    H2 29687   0.417000   1.008000
29688         OT  4494  TIP3   OH2 29688  -0.834000  15.999400
29689         HT  4494  TIP3    H1 29689   0.417000   1.008000
29690         HT  4494  TIP3    H2 29690   0.417000   1.008000
29691         OT  4495  TIP3   OH2 29691  -0.834000  15.999400
29692         HT  4495  TIP3    H1 29692   0.417000   1.008000
29693         HT  4495  TIP3    H2 29693   0.417000   1.008000
29694         OT  4496  TIP3   OH2 29694  -0.834000  15.999400
29695         HT  4496  TIP3    H1 29695   0.417000   1.008000
29696         HT  4496  TIP3    H2 29696   0.417000   1.008000
29697         OT  4497  TIP3   OH2 29697  -0.834000  15.999400
29698         HT  4497  TIP3    H1 29698   0.417000   1.008000
29699         HT  4497  TIP3    H2 29699   0.417000   1.008000
29700         OT  4498  TIP3   OH2 29700  -0.834000  15.999400
29701         HT  4498  TIP3    H1 29701   0.417000   1.008000
29702         HT  4498  TIP3    H2 29702   0.417000   1.008000
29703         OT  4499  TIP3   OH2 29703  -0.834000  15.999400
29704         HT  4499  TIP3    H1 29704   0.417000   1.008000
29705         HT  4499  TIP3    H2 29705   0.417000   1.008000
29706         OT  4500  TIP3   OH2 29706  -0.834000  15.999400
29707         HT  4500  TIP3    H1 29707   0.417000   1.008000
29708         HT  4500  TIP3    H2 29708   0.417000   1.008000
29709         OT  4501  TIP3   OH2 29709  -0.834000  15.999400
29710         HT  4501  TIP3    H1 29710   0.417000   1.008000
29711         HT  4501  TIP3    H2 29711   0.417000   1.008000
29712         OT  4502  TIP3   OH2 29712  -0.834000  15.999400
29713         HT  4502  TIP3    H1 29713   0.417000   1.008000
29714         HT  4502  TIP3    H2 29714   0.417000   1.008000
29715         OT  4503  TIP3   OH2 29715  -0.834000  15.999400
29716         HT  4503  TIP3    H1 29716   0.417000   1.008000
29717         HT  4503  TIP3    H2 29717   0.417000   1.008000
29718         OT  4504  TIP3   OH2 29718  -0.834000  15.999400
29719         HT  4504  TIP3    H1 29719   0.417000   1.008000
29720         HT  4504  TIP3    H2 29720   0.417000   1.008000
29721         OT  4505  TIP3   OH2 29721  -0.834000  15.999400
29722         HT  4505  TIP3    H1 29722   0.417000   1.008000
29723         HT  4505  TIP3    H2 29723   0.417000   1.008000
29724         OT  4506  TIP3   OH2 29724  -0.834000  15.999400
29725         HT  4506  TIP3    H1 29725   0.417000   1.008000
29726         HT  4506  TIP3    H2 29726   0.417000   1.008000
29727         OT  4507  TIP3   OH2 29727  -0.834000  15.999400
29728         HT  4507  TIP3    H1 29728   0.417000   1.008000
29729         HT  4507  TIP3    H2 29729   0.417000   1.008000
29730         OT  4508  TIP3   OH2 29730  -0.834000  15.999400
29731         HT  4508  TIP3    H1 29731   0.417000   1.008000
29732         HT  4508  TIP3    H2 29732   0.417000   1.008000
29733         OT  4509  TIP3   OH2 29733  -0.834000  15.999400
29734         HT  4509  TIP3    H1 29734   0.417000   1.008000
29735         HT  4509  TIP3    H2 29735   0.417000   1.008000
29736         OT  4510  TIP3   OH2 29736  -0.834000  15.999400
29737         HT  4510  TIP3    H1 29737   0.417000   1.008000
29738         HT  4510  TIP3    H2 29738   0.417000   1.008000
29739         OT  4511  TIP3   OH2 29739  -0.834000  15.999400
29740         HT  4511  TIP3    H1 29740   0.417000   1.008000
29741         HT  4511  TIP3    H2 29741   0.417000   1.008000
29742         OT  4512  TIP3   OH2 29742  -0.834000  15.999400
29743         HT  4512  TIP3    H1 29743   0.417000   1.008000
29744         HT  4512  TIP3    H2 29744   0.417000   1.008000
29745         OT  4513  TIP3   OH2 29745  -0.834000  15.999400
29746         HT  4513  TIP3    H1 29746   0.417000   1.008000
29747         HT  4513  TIP3    H2 29747   0.417000   1.008000
29748         OT  4514  TIP3   OH2 29748  -0.834000  15.999400
29749         HT  4514  TIP3    H1 29749   0.417000   1.008000
29750         HT  4514  TIP3    H2 29750   0.417000   1.008000
29751         OT  4515  TIP3   OH2 29751  -0.834000  15.999400
29752         HT  4515  TIP3    H1 29752   0.417000   1.008000
29753         HT  4515  TIP3    H2 29753   0.417000   1.008000
29754         OT  4516  TIP3   OH2 29754  -0.834000  15.999400
29755         HT  4516  TIP3    H1 29755   0.417000   1.008000
29756         HT  4516  TIP3    H2 29756   0.417000   1.008000
29757         OT  4517  TIP3   OH2 29757  -0.834000  15.999400
29758         HT  4517  TIP3    H1 29758   0.417000   1.008000
29759         HT  4517  TIP3    H2 29759   0.417000   1.008000
29760         OT  4518  TIP3   OH2 29760  -0.834000  15.999400
29761         HT  4518  TIP3    H1 29761   0.417000   1.008000
29762         HT  4518  TIP3    H2 29762   0.417000   1.008000
29763         OT  4519  TIP3   OH2 29763  -0.834000  15.999400
29764         HT  4519  TIP3    H1 29764   0.417000   1.008000
29765         HT  4519  TIP3    H2 29765   0.417000   1.008000
29766         OT  4520  TIP3   OH2 29766  -0.834000  15.999400
29767         HT  4520  TIP3    H1 29767   0.417000   1.008000
29768         HT  4520  TIP3    H2 29768   0.417000   1.008000
29769         OT  4521  TIP3   OH2 29769  -0.834000  15.999400
29770         HT  4521  TIP3    H1 29770   0.417000   1.008000
29771         HT  4521  TIP3    H2 29771   0.417000   1.008000
29772         OT  4522  TIP3   OH2 29772  -0.834000  15.999400
29773         HT  4522  TIP3    H1 29773   0.417000   1.008000
29774         HT  4522  TIP3    H2 29774   0.417000   1.008000
29775         OT  4523  TIP3   OH2 29775  -0.834000  15.999400
29776         HT  4523  TIP3    H1 29776   0.417000   1.008000
29777         HT  4523  TIP3    H2 29777   0.417000   1.008000
29778         OT  4524  TIP3   OH2 29778  -0.834000  15.999400
29779         HT  4524  TIP3    H1 29779   0.417000   1.008000
29780         HT  4524  TIP3    H2 29780   0.417000   1.008000
29781         OT  4525  TIP3   OH2 29781  -0.834000  15.999400
29782         HT  4525  TIP3    H1 29782   0.417000   1.008000
29783         HT  4525  TIP3    H2 29783   0.417000   1.008000
29784         OT  4526  TIP3   OH2 29784  -0.834000  15.999400
29785         HT  4526  TIP3    H1 29785   0.417000   1.008000
29786         HT  4526  TIP3    H2 29786   0.417000   1.008000
29787         OT  4527  TIP3   OH2 29787  -0.834000  15.999400
29788         HT  4527  TIP3    H1 29788   0.417000   1.008000
29789         HT  4527  TIP3    H2 29789   0.417000   1.008000
29790         OT  4528  TIP3   OH2 29790  -0.834000  15.999400
29791         HT  4528  TIP3    H1 29791   0.417000   1.008000
29792         HT  4528  TIP3    H2 29792   0.417000   1.008000
29793         OT  4529  TIP3   OH2 29793  -0.834000  15.999400
29794         HT  4529  TIP3    H1 29794   0.417000   1.008000
29795         HT  4529  TIP3    H2 29795   0.417000   1.008000
29796         OT  4530  TIP3   OH2 29796  -0.834000  15.999400
29797         HT  4530  TIP3    H1 29797   0.417000   1.008000
29798         HT  4530  TIP3    H2 29798   0.417000   1.008000
29799         OT  4531  TIP3   OH2 29799  -0.834000  15.999400
29800         HT  4531  TIP3    H1 29800   0.417000   1.008000
29801         HT  4531  TIP3    H2 29801   0.417000   1.008000
29802         OT  4532  TIP3   OH2 29802  -0.834000  15.999400
29803         HT  4532  TIP3    H1 29803   0.417000   1.008000
29804         HT  4532  TIP3    H2 29804   0.417000   1.008000
29805         OT  4533  TIP3   OH2 29805  -0.834000  15.999400
29806         HT  4533  TIP3    H1 29806   0.417000   1.008000
29807         HT  4533  TIP3    H2 29807   0.417000   1.008000
29808         OT  4534  TIP3   OH2 29808  -0.834000  15.999400
29809         HT  4534  TIP3    H1 29809   0.417000   1.008000
29810         HT  4534  TIP3    H2 29810   0.417000   1.008000
29811         OT  4535  TIP3   OH2 29811  -0.834000  15.999400
29812         HT  4535  TIP3    H1 29812   0.417000   1.008000
29813         HT  4535  TIP3    H2 29813   0.417000   1.008000
29814         OT  4536  TIP3   OH2 29814  -0.834000  15.999400
29815         HT  4536  TIP3    H1 29815   0.417000   1.008000
29816         HT  4536  TIP3    H2 29816   0.417000   1.008000
29817         OT  4537  TIP3   OH2 29817  -0.834000  15.999400
29818         HT  4537  TIP3    H1 29818   0.417000   1.008000
29819         HT  4537  TIP3    H2 29819   0.417000   1.008000
29820         OT  4538  TIP3   OH2 29820  -0.834000  15.999400
29821         HT  4538  TIP3    H1 29821   0.417000   1.008000
29822         HT  4538  TIP3    H2 29822   0.417000   1.008000
29823         OT  4539  TIP3   OH2 29823  -0.834000  15.999400
29824         HT  4539  TIP3    H1 29824   0.417000   1.008000
29825         HT  4539  TIP3    H2 29825   0.417000   1.008000
29826         OT  4540  TIP3   OH2 29826  -0.834000  15.999400
29827         HT  4540  TIP3    H1 29827   0.417000   1.008000
29828         HT  4540  TIP3    H2 29828   0.417000   1.008000
29829         OT  4541  TIP3   OH2 29829  -0.834000  15.999400
29830         HT  4541  TIP3    H1 29830   0.417000   1.008000
29831         HT  4541  TIP3    H2 29831   0.417000   1.008000
29832         OT  4542  TIP3   OH2 29832  -0.834000  15.999400
29833         HT  4542  TIP3    H1 29833   0.417000   1.008000
29834         HT  4542  TIP3    H2 29834   0.417000   1.008000
29835         OT  4543  TIP3   OH2 29835  -0.834000  15.999400
29836         HT  4543  TIP3    H1 29836   0.417000   1.008000
29837         HT  4543  TIP3    H2 29837   0.417000   1.008000
29838         OT  4544  TIP3   OH2 29838  -0.834000  15.999400
29839         HT  4544  TIP3    H1 29839   0.417000   1.008000
29840         HT  4544  TIP3    H2 29840   0.417000   1.008000
29841         OT  4545  TIP3   OH2 29841  -0.834000  15.999400
29842         HT  4545  TIP3    H1 29842   0.417000   1.008000
29843         HT  4545  TIP3    H2 29843   0.417000   1.008000
29844         OT  4546  TIP3   OH2 29844  -0.834000  15.999400
29845         HT  4546  TIP3    H1 29845   0.417000   1.008000
29846         HT  4546  TIP3    H2 29846   0.417000   1.008000
29847         OT  4547  TIP3   OH2 29847  -0.834000  15.999400
29848         HT  4547  TIP3    H1 29848   0.417000   1.008000
29849         HT  4547  TIP3    H2 29849   0.417000   1.008000
29850         OT  4548  TIP3   OH2 29850  -0.834000  15.999400
29851         HT  4548  TIP3    H1 29851   0.417000   1.008000
29852         HT  4548  TIP3    H2 29852   0.417000   1.008000
29853         OT  4549  TIP3   OH2 29853  -0.834000  15.999400
29854         HT  4549  TIP3    H1 29854   0.417000   1.008000
29855         HT  4549  TIP3    H2 29855   0.417000   1.008000
29856         OT  4550  TIP3   OH2 29856  -0.834000  15.999400
29857         HT  4550  TIP3    H1 29857   0.417000   1.008000
29858         HT  4550  TIP3    H2 29858   0.417000   1.008000
29859         OT  4551  TIP3   OH2 29859  -0.834000  15.999400
29860         HT  4551  TIP3    H1 29860   0.417000   1.008000
29861         HT  4551  TIP3    H2 29861   0.417000   1.008000
29862         OT  4552  TIP3   OH2 29862  -0.834000  15.999400
29863         HT  4552  TIP3    H1 29863   0.417000   1.008000
29864         HT  4552  TIP3    H2 29864   0.417000   1.008000
29865         OT  4553  TIP3   OH2 29865  -0.834000  15.999400
29866         HT  4553  TIP3    H1 29866   0.417000   1.008000
29867         HT  4553  TIP3    H2 29867   0.417000   1.008000
29868         OT  4554  TIP3   OH2 29868  -0.834000  15.999400
29869         HT  4554  TIP3    H1 29869   0.417000   1.008000
29870         HT  4554  TIP3    H2 29870   0.417000   1.008000
29871         OT  4555  TIP3   OH2 29871  -0.834000  15.999400
29872         HT  4555  TIP3    H1 29872   0.417000   1.008000
29873         HT  4555  TIP3    H2 29873   0.417000   1.008000
29874         OT  4556  TIP3   OH2 29874  -0.834000  15.999400
29875         HT  4556  TIP3    H1 29875   0.417000   1.008000
29876         HT  4556  TIP3    H2 29876   0.417000   1.008000
29877         OT  4557  TIP3   OH2 29877  -0.834000  15.999400
29878         HT  4557  TIP3    H1 29878   0.417000   1.008000
29879         HT  4557  TIP3    H2 29879   0.417000   1.008000
29880         OT  4558  TIP3   OH2 29880  -0.834000  15.999400
29881         HT  4558  TIP3    H1 29881   0.417000   1.008000
29882         HT  4558  TIP3    H2 29882   0.417000   1.008000
29883         OT  4559  TIP3   OH2 29883  -0.834000  15.999400
29884         HT  4559  TIP3    H1 29884   0.417000   1.008000
29885         HT  4559  TIP3    H2 29885   0.417000   1.008000
29886         OT  4560  TIP3   OH2 29886  -0.834000  15.999400
29887         HT  4560  TIP3    H1 29887   0.417000   1.008000
29888         HT  4560  TIP3    H2 29888   0.417000   1.008000
29889         OT  4561  TIP3   OH2 29889  -0.834000  15.999400
29890         HT  4561  TIP3    H1 29890   0.417000   1.008000
29891         HT  4561  TIP3    H2 29891   0.417000   1.008000
29892         OT  4562  TIP3   OH2 29892  -0.834000  15.999400
29893         HT  4562  TIP3    H1 29893   0.417000   1.008000
29894         HT  4562  TIP3    H2 29894   0.417000   1.008000
29895         OT  4563  TIP3   OH2 29895  -0.834000  15.999400
29896         HT  4563  TIP3    H1 29896   0.417000   1.008000
29897         HT  4563  TIP3    H2 29897   0.417000   1.008000
29898         OT  4564  TIP3   OH2 29898  -0.834000  15.999400
29899         HT  4564  TIP3    H1 29899   0.417000   1.008000
29900         HT  4564  TIP3    H2 29900   0.417000   1.008000
29901         OT  4565  TIP3   OH2 29901  -0.834000  15.999400
29902         HT  4565  TIP3    H1 29902   0.417000   1.008000
29903         HT  4565  TIP3    H2 29903   0.417000   1.008000
29904         OT  4566  TIP3   OH2 29904  -0.834000  15.999400
29905         HT  4566  TIP3    H1 29905   0.417000   1.008000
29906         HT  4566  TIP3    H2 29906   0.417000   1.008000
29907         OT  4567  TIP3   OH2 29907  -0.834000  15.999400
29908         HT  4567  TIP3    H1 29908   0.417000   1.008000
29909         HT  4567  TIP3    H2 29909   0.417000   1.008000
29910         OT  4568  TIP3   OH2 29910  -0.834000  15.999400
29911         HT  4568  TIP3    H1 29911   0.417000   1.008000
29912         HT  4568  TIP3    H2 29912   0.417000   1.008000
29913         OT  4569  TIP3   OH2 29913  -0.834000  15.999400
29914         HT  4569  TIP3    H1 29914   0.417000   1.008000
29915         HT  4569  TIP3    H2 29915   0.417000   1.008000
29916         OT  4570  TIP3   OH2 29916  -0.834000  15.999400
29917         HT  4570  TIP3    H1 29917   0.417000   1.008000
29918         HT  4570  TIP3    H2 29918   0.417000   1.008000
29919         OT  4571  TIP3   OH2 29919  -0.834000  15.999400
29920         HT  4571  TIP3    H1 29920   0.417000   1.008000
29921         HT  4571  TIP3    H2 29921   0.417000   1.008000
29922         OT  4572  TIP3   OH2 29922  -0.834000  15.999400
29923         HT  4572  TIP3    H1 29923   0.417000   1.008000
29924         HT  4572  TIP3    H2 29924   0.417000   1.008000
29925         OT  4573  TIP3   OH2 29925  -0.834000  15.999400
29926         HT  4573  TIP3    H1 29926   0.417000   1.008000
29927         HT  4573  TIP3    H2 29927   0.417000   1.008000
29928         OT  4574  TIP3   OH2 29928  -0.834000  15.999400
29929         HT  4574  TIP3    H1 29929   0.417000   1.008000
29930         HT  4574  TIP3    H2 29930   0.417000   1.008000
29931         OT  4575  TIP3   OH2 29931  -0.834000  15.999400
29932         HT  4575  TIP3    H1 29932   0.417000   1.008000
29933         HT  4575  TIP3    H2 29933   0.417000   1.008000
29934         OT  4576  TIP3   OH2 29934  -0.834000  15.999400
29935         HT  4576  TIP3    H1 29935   0.417000   1.008000
29936         HT  4576  TIP3    H2 29936   0.417000   1.008000
29937         OT  4577  TIP3   OH2 29937  -0.834000  15.999400
29938         HT  4577  TIP3    H1 29938   0.417000   1.008000
29939         HT  4577  TIP3    H2 29939   0.417000   1.008000
29940         OT  4578  TIP3   OH2 29940  -0.834000  15.999400
29941         HT  4578  TIP3    H1 29941   0.417000   1.008000
29942         HT  4578  TIP3    H2 29942   0.417000   1.008000
29943         OT  4579  TIP3   OH2 29943  -0.834000  15.999400
29944         HT  4579  TIP3    H1 29944   0.417000   1.008000
29945         HT  4579  TIP3    H2 29945   0.417000   1.008000
29946         OT  4580  TIP3   OH2 29946  -0.834000  15.999400
29947         HT  4580  TIP3    H1 29947   0.417000   1.008000
29948         HT  4580  TIP3    H2 29948   0.417000   1.008000
29949         OT  4581  TIP3   OH2 29949  -0.834000  15.999400
29950         HT  4581  TIP3    H1 29950   0.417000   1.008000
29951         HT  4581  TIP3    H2 29951   0.417000   1.008000
29952         OT  4582  TIP3   OH2 29952  -0.834000  15.999400
29953         HT  4582  TIP3    H1 29953   0.417000   1.008000
29954         HT  4582  TIP3    H2 29954   0.417000   1.008000
29955         OT  4583  TIP3   OH2 29955  -0.834000  15.999400
29956         HT  4583  TIP3    H1 29956   0.417000   1.008000
29957         HT  4583  TIP3    H2 29957   0.417000   1.008000
29958         OT  4584  TIP3   OH2 29958  -0.834000  15.999400
29959         HT  4584  TIP3    H1 29959   0.417000   1.008000
29960         HT  4584  TIP3    H2 29960   0.417000   1.008000
29961         OT  4585  TIP3   OH2 29961  -0.834000  15.999400
29962         HT  4585  TIP3    H1 29962   0.417000   1.008000
29963         HT  4585  TIP3    H2 29963   0.417000   1.008000
29964         OT  4586  TIP3   OH2 29964  -0.834000  15.999400
29965         HT  4586  TIP3    H1 29965   0.417000   1.008000
29966         HT  4586  TIP3    H2 29966   0.417000   1.008000
29967         OT  4587  TIP3   OH2 29967  -0.834000  15.999400
29968         HT  4587  TIP3    H1 29968   0.417000   1.008000
29969         HT  4587  TIP3    H2 29969   0.417000   1.008000
29970         OT  4588  TIP3   OH2 29970  -0.834000  15.999400
29971         HT  4588  TIP3    H1 29971   0.417000   1.008000
29972         HT  4588  TIP3    H2 29972   0.417000   1.008000
29973         OT  4589  TIP3   OH2 29973  -0.834000  15.999400
29974         HT  4589  TIP3    H1 29974   0.417000   1.008000
29975         HT  4589  TIP3    H2 29975   0.417000   1.008000
29976         OT  4590  TIP3   OH2 29976  -0.834000  15.999400
29977         HT  4590  TIP3    H1 29977   0.417000   1.008000
29978         HT  4590  TIP3    H2 29978   0.417000   1.008000
29979         OT  4591  TIP3   OH2 29979  -0.834000  15.999400
29980         HT  4591  TIP3    H1 29980   0.417000   1.008000
29981         HT  4591  TIP3    H2 29981   0.417000   1.008000
29982         OT  4592  TIP3   OH2 29982  -0.834000  15.999400
29983         HT  4592  TIP3    H1 29983   0.417000   1.008000
29984         HT  4592  TIP3    H2 29984   0.417000   1.008000
29985         OT  4593  TIP3   OH2 29985  -0.834000  15.999400
29986         HT  4593  TIP3    H1 29986   0.417000   1.008000
29987         HT  4593  TIP3    H2 29987   0.417000   1.008000
29988         OT  4594  TIP3   OH2 29988  -0.834000  15.999400
29989         HT  4594  TIP3    H1 29989   0.417000   1.008000
29990         HT  4594  TIP3    H2 29990   0.417000   1.008000
29991         OT  4595  TIP3   OH2 29991  -0.834000  15.999400
29992         HT  4595  TIP3    H1 29992   0.417000   1.008000
29993         HT  4595  TIP3    H2 29993   0.417000   1.008000
29994         OT  4596  TIP3   OH2 29994  -0.834000  15.999400
29995         HT  4596  TIP3    H1 29995   0.417000   1.008000
29996         HT  4596  TIP3    H2 29996   0.417000   1.008000
29997         OT  4597  TIP3   OH2 29997  -0.834000  15.999400
29998         HT  4597  TIP3    H1 29998   0.417000   1.008000
29999         HT  4597  TIP3    H2 29999   0.417000   1.008000
30000         OT  4598  TIP3   OH2 30000  -0.834000  15.999400
30001         HT  4598  TIP3    H1 30001   0.417000   1.008000
30002         HT  4598  TIP3    H2 30002   0.417000   1.008000
30003         OT  4599  TIP3   OH2 30003  -0.834000  15.999400
30004         HT  4599  TIP3    H1 30004   0.417000   1.008000
30005         HT  4599  TIP3    H2 30005   0.417000   1.008000
30006         OT  4600  TIP3   OH2 30006  -0.834000  15.999400
30007         HT  4600  TIP3    H1 30007   0.417000   1.008000
30008         HT  4600  TIP3    H2 30008   0.417000   1.008000
30009         OT  4601  TIP3   OH2 30009  -0.834000  15.999400
30010         HT  4601  TIP3    H1 30010   0.417000   1.008000
30011         HT  4601  TIP3    H2 30011   0.417000   1.008000
30012         OT  4602  TIP3   OH2 30012  -0.834000  15.999400
30013         HT  4602  TIP3    H1 30013   0.417000   1.008000
30014         HT  4602  TIP3    H2 30014   0.417000   1.008000
30015         OT  4603  TIP3   OH2 30015  -0.834000  15.999400
30016         HT  4603  TIP3    H1 30016   0.417000   1.008000
30017         HT  4603  TIP3    H2 30017   0.417000   1.008000
30018         OT  4604  TIP3   OH2 30018  -0.834000  15.999400
30019         HT  4604  TIP3    H1 30019   0.417000   1.008000
30020         HT  4604  TIP3    H2 30020   0.417000   1.008000
30021         OT  4605  TIP3   OH2 30021  -0.834000  15.999400
30022         HT  4605  TIP3    H1 30022   0.417000   1.008000
30023         HT  4605  TIP3    H2 30023   0.417000   1.008000
30024         OT  4606  TIP3   OH2 30024  -0.834000  15.999400
30025         HT  4606  TIP3    H1 30025   0.417000   1.008000
30026         HT  4606  TIP3    H2 30026   0.417000   1.008000
30027         OT  4607  TIP3   OH2 30027  -0.834000  15.999400
30028         HT  4607  TIP3    H1 30028   0.417000   1.008000
30029         HT  4607  TIP3    H2 30029   0.417000   1.008000
30030         OT  4608  TIP3   OH2 30030  -0.834000  15.999400
30031         HT  4608  TIP3    H1 30031   0.417000   1.008000
30032         HT  4608  TIP3    H2 30032   0.417000   1.008000
30033         OT  4609  TIP3   OH2 30033  -0.834000  15.999400
30034         HT  4609  TIP3    H1 30034   0.417000   1.008000
30035         HT  4609  TIP3    H2 30035   0.417000   1.008000
30036         OT  4610  TIP3   OH2 30036  -0.834000  15.999400
30037         HT  4610  TIP3    H1 30037   0.417000   1.008000
30038         HT  4610  TIP3    H2 30038   0.417000   1.008000
30039         OT  4611  TIP3   OH2 30039  -0.834000  15.999400
30040         HT  4611  TIP3    H1 30040   0.417000   1.008000
30041         HT  4611  TIP3    H2 30041   0.417000   1.008000
30042         OT  4612  TIP3   OH2 30042  -0.834000  15.999400
30043         HT  4612  TIP3    H1 30043   0.417000   1.008000
30044         HT  4612  TIP3    H2 30044   0.417000   1.008000
30045         OT  4613  TIP3   OH2 30045  -0.834000  15.999400
30046         HT  4613  TIP3    H1 30046   0.417000   1.008000
30047         HT  4613  TIP3    H2 30047   0.417000   1.008000
30048         OT  4614  TIP3   OH2 30048  -0.834000  15.999400
30049         HT  4614  TIP3    H1 30049   0.417000   1.008000
30050         HT  4614  TIP3    H2 30050   0.417000   1.008000
30051         OT  4615  TIP3   OH2 30051  -0.834000  15.999400
30052         HT  4615  TIP3    H1 30052   0.417000   1.008000
30053         HT  4615  TIP3    H2 30053   0.417000   1.008000
30054         OT  4616  TIP3   OH2 30054  -0.834000  15.999400
30055         HT  4616  TIP3    H1 30055   0.417000   1.008000
30056         HT  4616  TIP3    H2 30056   0.417000   1.008000
30057         OT  4617  TIP3   OH2 30057  -0.834000  15.999400
30058         HT  4617  TIP3    H1 30058   0.417000   1.008000
30059         HT  4617  TIP3    H2 30059   0.417000   1.008000
30060         OT  4618  TIP3   OH2 30060  -0.834000  15.999400
30061         HT  4618  TIP3    H1 30061   0.417000   1.008000
30062         HT  4618  TIP3    H2 30062   0.417000   1.008000
30063         OT  4619  TIP3   OH2 30063  -0.834000  15.999400
30064         HT  4619  TIP3    H1 30064   0.417000   1.008000
30065         HT  4619  TIP3    H2 30065   0.417000   1.008000
30066         OT  4620  TIP3   OH2 30066  -0.834000  15.999400
30067         HT  4620  TIP3    H1 30067   0.417000   1.008000
30068         HT  4620  TIP3    H2 30068   0.417000   1.008000
30069         OT  4621  TIP3   OH2 30069  -0.834000  15.999400
30070         HT  4621  TIP3    H1 30070   0.417000   1.008000
30071         HT  4621  TIP3    H2 30071   0.417000   1.008000
30072         OT  4622  TIP3   OH2 30072  -0.834000  15.999400
30073         HT  4622  TIP3    H1 30073   0.417000   1.008000
30074         HT  4622  TIP3    H2 30074   0.417000   1.008000
30075         OT  4623  TIP3   OH2 30075  -0.834000  15.999400
30076         HT  4623  TIP3    H1 30076   0.417000   1.008000
30077         HT  4623  TIP3    H2 30077   0.417000   1.008000
30078         OT  4624  TIP3   OH2 30078  -0.834000  15.999400
30079         HT  4624  TIP3    H1 30079   0.417000   1.008000
30080         HT  4624  TIP3    H2 30080   0.417000   1.008000
30081         OT  4625  TIP3   OH2 30081  -0.834000  15.999400
30082         HT  4625  TIP3    H1 30082   0.417000   1.008000
30083         HT  4625  TIP3    H2 30083   0.417000   1.008000
30084         OT  4626  TIP3   OH2 30084  -0.834000  15.999400
30085         HT  4626  TIP3    H1 30085   0.417000   1.008000
30086         HT  4626  TIP3    H2 30086   0.417000   1.008000
30087         OT  4627  TIP3   OH2 30087  -0.834000  15.999400
30088         HT  4627  TIP3    H1 30088   0.417000   1.008000
30089         HT  4627  TIP3    H2 30089   0.417000   1.008000
30090         OT  4628  TIP3   OH2 30090  -0.834000  15.999400
30091         HT  4628  TIP3    H1 30091   0.417000   1.008000
30092         HT  4628  TIP3    H2 30092   0.417000   1.008000
30093         OT  4629  TIP3   OH2 30093  -0.834000  15.999400
30094         HT  4629  TIP3    H1 30094   0.417000   1.008000
30095         HT  4629  TIP3    H2 30095   0.417000   1.008000
30096         OT  4630  TIP3   OH2 30096  -0.834000  15.999400
30097         HT  4630  TIP3    H1 30097   0.417000   1.008000
30098         HT  4630  TIP3    H2 30098   0.417000   1.008000
30099         OT  4631  TIP3   OH2 30099  -0.834000  15.999400
30100         HT  4631  TIP3    H1 30100   0.417000   1.008000
30101         HT  4631  TIP3    H2 30101   0.417000   1.008000
30102         OT  4632  TIP3   OH2 30102  -0.834000  15.999400
30103         HT  4632  TIP3    H1 30103   0.417000   1.008000
30104         HT  4632  TIP3    H2 30104   0.417000   1.008000
30105         OT  4633  TIP3   OH2 30105  -0.834000  15.999400
30106         HT  4633  TIP3    H1 30106   0.417000   1.008000
30107         HT  4633  TIP3    H2 30107   0.417000   1.008000
30108         OT  4634  TIP3   OH2 30108  -0.834000  15.999400
30109         HT  4634  TIP3    H1 30109   0.417000   1.008000
30110         HT  4634  TIP3    H2 30110   0.417000   1.008000
30111         OT  4635  TIP3   OH2 30111  -0.834000  15.999400
30112         HT  4635  TIP3    H1 30112   0.417000   1.008000
30113         HT  4635  TIP3    H2 30113   0.417000   1.008000
30114         OT  4636  TIP3   OH2 30114  -0.834000  15.999400
30115         HT  4636  TIP3    H1 30115   0.417000   1.008000
30116         HT  4636  TIP3    H2 30116   0.417000   1.008000
30117         OT  4637  TIP3   OH2 30117  -0.834000  15.999400
30118         HT  4637  TIP3    H1 30118   0.417000   1.008000
30119         HT  4637  TIP3    H2 30119   0.417000   1.008000
30120         OT  4638  TIP3   OH2 30120  -0.834000  15.999400
30121         HT  4638  TIP3    H1 30121   0.417000   1.008000
30122         HT  4638  TIP3    H2 30122   0.417000   1.008000
30123         OT  4639  TIP3   OH2 30123  -0.834000  15.999400
30124         HT  4639  TIP3    H1 30124   0.417000   1.008000
30125         HT  4639  TIP3    H2 30125   0.417000   1.008000
30126         OT  4640  TIP3   OH2 30126  -0.834000  15.999400
30127         HT  4640  TIP3    H1 30127   0.417000   1.008000
30128         HT  4640  TIP3    H2 30128   0.417000   1.008000
30129         OT  4641  TIP3   OH2 30129  -0.834000  15.999400
30130         HT  4641  TIP3    H1 30130   0.417000   1.008000
30131         HT  4641  TIP3    H2 30131   0.417000   1.008000
30132         OT  4642  TIP3   OH2 30132  -0.834000  15.999400
30133         HT  4642  TIP3    H1 30133   0.417000   1.008000
30134         HT  4642  TIP3    H2 30134   0.417000   1.008000
30135         OT  4643  TIP3   OH2 30135  -0.834000  15.999400
30136         HT  4643  TIP3    H1 30136   0.417000   1.008000
30137         HT  4643  TIP3    H2 30137   0.417000   1.008000
30138         OT  4644  TIP3   OH2 30138  -0.834000  15.999400
30139         HT  4644  TIP3    H1 30139   0.417000   1.008000
30140         HT  4644  TIP3    H2 30140   0.417000   1.008000
30141         OT  4645  TIP3   OH2 30141  -0.834000  15.999400
30142         HT  4645  TIP3    H1 30142   0.417000   1.008000
30143         HT  4645  TIP3    H2 30143   0.417000   1.008000
30144         OT  4646  TIP3   OH2 30144  -0.834000  15.999400
30145         HT  4646  TIP3    H1 30145   0.417000   1.008000
30146         HT  4646  TIP3    H2 30146   0.417000   1.008000
30147         OT  4647  TIP3   OH2 30147  -0.834000  15.999400
30148         HT  4647  TIP3    H1 30148   0.417000   1.008000
30149         HT  4647  TIP3    H2 30149   0.417000   1.008000
30150         OT  4648  TIP3   OH2 30150  -0.834000  15.999400
30151         HT  4648  TIP3    H1 30151   0.417000   1.008000
30152         HT  4648  TIP3    H2 30152   0.417000   1.008000
30153         OT  4649  TIP3   OH2 30153  -0.834000  15.999400
30154         HT  4649  TIP3    H1 30154   0.417000   1.008000
30155         HT  4649  TIP3    H2 30155   0.417000   1.008000
30156         OT  4650  TIP3   OH2 30156  -0.834000  15.999400
30157         HT  4650  TIP3    H1 30157   0.417000   1.008000
30158         HT  4650  TIP3    H2 30158   0.417000   1.008000
30159         OT  4651  TIP3   OH2 30159  -0.834000  15.999400
30160         HT  4651  TIP3    H1 30160   0.417000   1.008000
30161         HT  4651  TIP3    H2 30161   0.417000   1.008000
30162         OT  4652  TIP3   OH2 30162  -0.834000  15.999400
30163         HT  4652  TIP3    H1 30163   0.417000   1.008000
30164         HT  4652  TIP3    H2 30164   0.417000   1.008000
30165         OT  4653  TIP3   OH2 30165  -0.834000  15.999400
30166         HT  4653  TIP3    H1 30166   0.417000   1.008000
30167         HT  4653  TIP3    H2 30167   0.417000   1.008000
30168         OT  4654  TIP3   OH2 30168  -0.834000  15.999400
30169         HT  4654  TIP3    H1 30169   0.417000   1.008000
30170         HT  4654  TIP3    H2 30170   0.417000   1.008000
30171         OT  4655  TIP3   OH2 30171  -0.834000  15.999400
30172         HT  4655  TIP3    H1 30172   0.417000   1.008000
30173         HT  4655  TIP3    H2 30173   0.417000   1.008000
30174         OT  4656  TIP3   OH2 30174  -0.834000  15.999400
30175         HT  4656  TIP3    H1 30175   0.417000   1.008000
30176         HT  4656  TIP3    H2 30176   0.417000   1.008000
30177         OT  4657  TIP3   OH2 30177  -0.834000  15.999400
30178         HT  4657  TIP3    H1 30178   0.417000   1.008000
30179         HT  4657  TIP3    H2 30179   0.417000   1.008000
30180         OT  4658  TIP3   OH2 30180  -0.834000  15.999400
30181         HT  4658  TIP3    H1 30181   0.417000   1.008000
30182         HT  4658  TIP3    H2 30182   0.417000   1.008000
30183         OT  4659  TIP3   OH2 30183  -0.834000  15.999400
30184         HT  4659  TIP3    H1 30184   0.417000   1.008000
30185         HT  4659  TIP3    H2 30185   0.417000   1.008000
30186         OT  4660  TIP3   OH2 30186  -0.834000  15.999400
30187         HT  4660  TIP3    H1 30187   0.417000   1.008000
30188         HT  4660  TIP3    H2 30188   0.417000   1.008000
30189         OT  4661  TIP3   OH2 30189  -0.834000  15.999400
30190         HT  4661  TIP3    H1 30190   0.417000   1.008000
30191         HT  4661  TIP3    H2 30191   0.417000   1.008000
30192         OT  4662  TIP3   OH2 30192  -0.834000  15.999400
30193         HT  4662  TIP3    H1 30193   0.417000   1.008000
30194         HT  4662  TIP3    H2 30194   0.417000   1.008000
30195         OT  4663  TIP3   OH2 30195  -0.834000  15.999400
30196         HT  4663  TIP3    H1 30196   0.417000   1.008000
30197         HT  4663  TIP3    H2 30197   0.417000   1.008000
30198         OT  4664  TIP3   OH2 30198  -0.834000  15.999400
30199         HT  4664  TIP3    H1 30199   0.417000   1.008000
30200         HT  4664  TIP3    H2 30200   0.417000   1.008000
30201         OT  4665  TIP3   OH2 30201  -0.834000  15.999400
30202         HT  4665  TIP3    H1 30202   0.417000   1.008000
30203         HT  4665  TIP3    H2 30203   0.417000   1.008000
30204         OT  4666  TIP3   OH2 30204  -0.834000  15.999400
30205         HT  4666  TIP3    H1 30205   0.417000   1.008000
30206         HT  4666  TIP3    H2 30206   0.417000   1.008000
30207         OT  4667  TIP3   OH2 30207  -0.834000  15.999400
30208         HT  4667  TIP3    H1 30208   0.417000   1.008000
30209         HT  4667  TIP3    H2 30209   0.417000   1.008000
30210         OT  4668  TIP3   OH2 30210  -0.834000  15.999400
30211         HT  4668  TIP3    H1 30211   0.417000   1.008000
30212         HT  4668  TIP3    H2 30212   0.417000   1.008000
30213         OT  4669  TIP3   OH2 30213  -0.834000  15.999400
30214         HT  4669  TIP3    H1 30214   0.417000   1.008000
30215         HT  4669  TIP3    H2 30215   0.417000   1.008000
30216         OT  4670  TIP3   OH2 30216  -0.834000  15.999400
30217         HT  4670  TIP3    H1 30217   0.417000   1.008000
30218         HT  4670  TIP3    H2 30218   0.417000   1.008000
30219         OT  4671  TIP3   OH2 30219  -0.834000  15.999400
30220         HT  4671  TIP3    H1 30220   0.417000   1.008000
30221         HT  4671  TIP3    H2 30221   0.417000   1.008000
30222         OT  4672  TIP3   OH2 30222  -0.834000  15.999400
30223         HT  4672  TIP3    H1 30223   0.417000   1.008000
30224         HT  4672  TIP3    H2 30224   0.417000   1.008000
30225         OT  4673  TIP3   OH2 30225  -0.834000  15.999400
30226         HT  4673  TIP3    H1 30226   0.417000   1.008000
30227         HT  4673  TIP3    H2 30227   0.417000   1.008000
30228         OT  4674  TIP3   OH2 30228  -0.834000  15.999400
30229         HT  4674  TIP3    H1 30229   0.417000   1.008000
30230         HT  4674  TIP3    H2 30230   0.417000   1.008000
30231         OT  4675  TIP3   OH2 30231  -0.834000  15.999400
30232         HT  4675  TIP3    H1 30232   0.417000   1.008000
30233         HT  4675  TIP3    H2 30233   0.417000   1.008000
30234         OT  4676  TIP3   OH2 30234  -0.834000  15.999400
30235         HT  4676  TIP3    H1 30235   0.417000   1.008000
30236         HT  4676  TIP3    H2 30236   0.417000   1.008000
30237         OT  4677  TIP3   OH2 30237  -0.834000  15.999400
30238         HT  4677  TIP3    H1 30238   0.417000   1.008000
30239         HT  4677  TIP3    H2 30239   0.417000   1.008000
30240         OT  4678  TIP3   OH2 30240  -0.834000  15.999400
30241         HT  4678  TIP3    H1 30241   0.417000   1.008000
30242         HT  4678  TIP3    H2 30242   0.417000   1.008000
30243         OT  4679  TIP3   OH2 30243  -0.834000  15.999400
30244         HT  4679  TIP3    H1 30244   0.417000   1.008000
30245         HT  4679  TIP3    H2 30245   0.417000   1.008000
30246         OT  4680  TIP3   OH2 30246  -0.834000  15.999400
30247         HT  4680  TIP3    H1 30247   0.417000   1.008000
30248         HT  4680  TIP3    H2 30248   0.417000   1.008000
30249         OT  4681  TIP3   OH2 30249  -0.834000  15.999400
30250         HT  4681  TIP3    H1 30250   0.417000   1.008000
30251         HT  4681  TIP3    H2 30251   0.417000   1.008000
30252         OT  4682  TIP3   OH2 30252  -0.834000  15.999400
30253         HT  4682  TIP3    H1 30253   0.417000   1.008000
30254         HT  4682  TIP3    H2 30254   0.417000   1.008000
30255         OT  4683  TIP3   OH2 30255  -0.834000  15.999400
30256         HT  4683  TIP3    H1 30256   0.417000   1.008000
30257         HT  4683  TIP3    H2 30257   0.417000   1.008000
30258         OT  4684  TIP3   OH2 30258  -0.834000  15.999400
30259         HT  4684  TIP3    H1 30259   0.417000   1.008000
30260         HT  4684  TIP3    H2 30260   0.417000   1.008000
30261         OT  4685  TIP3   OH2 30261  -0.834000  15.999400
30262         HT  4685  TIP3    H1 30262   0.417000   1.008000
30263         HT  4685  TIP3    H2 30263   0.417000   1.008000
30264         OT  4686  TIP3   OH2 30264  -0.834000  15.999400
30265         HT  4686  TIP3    H1 30265   0.417000   1.008000
30266         HT  4686  TIP3    H2 30266   0.417000   1.008000
30267         OT  4687  TIP3   OH2 30267  -0.834000  15.999400
30268         HT  4687  TIP3    H1 30268   0.417000   1.008000
30269         HT  4687  TIP3    H2 30269   0.417000   1.008000
30270         OT  4688  TIP3   OH2 30270  -0.834000  15.999400
30271         HT  4688  TIP3    H1 30271   0.417000   1.008000
30272         HT  4688  TIP3    H2 30272   0.417000   1.008000
30273         OT  4689  TIP3   OH2 30273  -0.834000  15.999400
30274         HT  4689  TIP3    H1 30274   0.417000   1.008000
30275         HT  4689  TIP3    H2 30275   0.417000   1.008000
30276         OT  4690  TIP3   OH2 30276  -0.834000  15.999400
30277         HT  4690  TIP3    H1 30277   0.417000   1.008000
30278         HT  4690  TIP3    H2 30278   0.417000   1.008000
30279         OT  4691  TIP3   OH2 30279  -0.834000  15.999400
30280         HT  4691  TIP3    H1 30280   0.417000   1.008000
30281         HT  4691  TIP3    H2 30281   0.417000   1.008000
30282         OT  4692  TIP3   OH2 30282  -0.834000  15.999400
30283         HT  4692  TIP3    H1 30283   0.417000   1.008000
30284         HT  4692  TIP3    H2 30284   0.417000   1.008000
30285         OT  4693  TIP3   OH2 30285  -0.834000  15.999400
30286         HT  4693  TIP3    H1 30286   0.417000   1.008000
30287         HT  4693  TIP3    H2 30287   0.417000   1.008000
30288         OT  4694  TIP3   OH2 30288  -0.834000  15.999400
30289         HT  4694  TIP3    H1 30289   0.417000   1.008000
30290         HT  4694  TIP3    H2 30290   0.417000   1.008000
30291         OT  4695  TIP3   OH2 30291  -0.834000  15.999400
30292         HT  4695  TIP3    H1 30292   0.417000   1.008000
30293         HT  4695  TIP3    H2 30293   0.417000   1.008000
30294         OT  4696  TIP3   OH2 30294  -0.834000  15.999400
30295         HT  4696  TIP3    H1 30295   0.417000   1.008000
30296         HT  4696  TIP3    H2 30296   0.417000   1.008000
30297         OT  4697  TIP3   OH2 30297  -0.834000  15.999400
30298         HT  4697  TIP3    H1 30298   0.417000   1.008000
30299         HT  4697  TIP3    H2 30299   0.417000   1.008000
30300         OT  4698  TIP3   OH2 30300  -0.834000  15.999400
30301         HT  4698  TIP3    H1 30301   0.417000   1.008000
30302         HT  4698  TIP3    H2 30302   0.417000   1.008000
30303         OT  4699  TIP3   OH2 30303  -0.834000  15.999400
30304         HT  4699  TIP3    H1 30304   0.417000   1.008000
30305         HT  4699  TIP3    H2 30305   0.417000   1.008000
30306         OT  4700  TIP3   OH2 30306  -0.834000  15.999400
30307         HT  4700  TIP3    H1 30307   0.417000   1.008000
30308         HT  4700  TIP3    H2 30308   0.417000   1.008000
30309         OT  4701  TIP3   OH2 30309  -0.834000  15.999400
30310         HT  4701  TIP3    H1 30310   0.417000   1.008000
30311         HT  4701  TIP3    H2 30311   0.417000   1.008000
30312         OT  4702  TIP3   OH2 30312  -0.834000  15.999400
30313         HT  4702  TIP3    H1 30313   0.417000   1.008000
30314         HT  4702  TIP3    H2 30314   0.417000   1.008000
30315         OT  4703  TIP3   OH2 30315  -0.834000  15.999400
30316         HT  4703  TIP3    H1 30316   0.417000   1.008000
30317         HT  4703  TIP3    H2 30317   0.417000   1.008000
30318         OT  4704  TIP3   OH2 30318  -0.834000  15.999400
30319         HT  4704  TIP3    H1 30319   0.417000   1.008000
30320         HT  4704  TIP3    H2 30320   0.417000   1.008000
30321         OT  4705  TIP3   OH2 30321  -0.834000  15.999400
30322         HT  4705  TIP3    H1 30322   0.417000   1.008000
30323         HT  4705  TIP3    H2 30323   0.417000   1.008000
30324         OT  4706  TIP3   OH2 30324  -0.834000  15.999400
30325         HT  4706  TIP3    H1 30325   0.417000   1.008000
30326         HT  4706  TIP3    H2 30326   0.417000   1.008000
30327         OT  4707  TIP3   OH2 30327  -0.834000  15.999400
30328         HT  4707  TIP3    H1 30328   0.417000   1.008000
30329         HT  4707  TIP3    H2 30329   0.417000   1.008000
30330         OT  4708  TIP3   OH2 30330  -0.834000  15.999400
30331         HT  4708  TIP3    H1 30331   0.417000   1.008000
30332         HT  4708  TIP3    H2 30332   0.417000   1.008000
30333         OT  4709  TIP3   OH2 30333  -0.834000  15.999400
30334         HT  4709  TIP3    H1 30334   0.417000   1.008000
30335         HT  4709  TIP3    H2 30335   0.417000   1.008000
30336         OT  4710  TIP3   OH2 30336  -0.834000  15.999400
30337         HT  4710  TIP3    H1 30337   0.417000   1.008000
30338         HT  4710  TIP3    H2 30338   0.417000   1.008000
30339         OT  4711  TIP3   OH2 30339  -0.834000  15.999400
30340         HT  4711  TIP3    H1 30340   0.417000   1.008000
30341         HT  4711  TIP3    H2 30341   0.417000   1.008000
30342         OT  4712  TIP3   OH2 30342  -0.834000  15.999400
30343         HT  4712  TIP3    H1 30343   0.417000   1.008000
30344         HT  4712  TIP3    H2 30344   0.417000   1.008000
30345         OT  4713  TIP3   OH2 30345  -0.834000  15.999400
30346         HT  4713  TIP3    H1 30346   0.417000   1.008000
30347         HT  4713  TIP3    H2 30347   0.417000   1.008000
30348         OT  4714  TIP3   OH2 30348  -0.834000  15.999400
30349         HT  4714  TIP3    H1 30349   0.417000   1.008000
30350         HT  4714  TIP3    H2 30350   0.417000   1.008000
30351         OT  4715  TIP3   OH2 30351  -0.834000  15.999400
30352         HT  4715  TIP3    H1 30352   0.417000   1.008000
30353         HT  4715  TIP3    H2 30353   0.417000   1.008000
30354         OT  4716  TIP3   OH2 30354  -0.834000  15.999400
30355         HT  4716  TIP3    H1 30355   0.417000   1.008000
30356         HT  4716  TIP3    H2 30356   0.417000   1.008000
30357         OT  4717  TIP3   OH2 30357  -0.834000  15.999400
30358         HT  4717  TIP3    H1 30358   0.417000   1.008000
30359         HT  4717  TIP3    H2 30359   0.417000   1.008000
30360         OT  4718  TIP3   OH2 30360  -0.834000  15.999400
30361         HT  4718  TIP3    H1 30361   0.417000   1.008000
30362         HT  4718  TIP3    H2 30362   0.417000   1.008000
30363         OT  4719  TIP3   OH2 30363  -0.834000  15.999400
30364         HT  4719  TIP3    H1 30364   0.417000   1.008000
30365         HT  4719  TIP3    H2 30365   0.417000   1.008000
30366         OT  4720  TIP3   OH2 30366  -0.834000  15.999400
30367         HT  4720  TIP3    H1 30367   0.417000   1.008000
30368         HT  4720  TIP3    H2 30368   0.417000   1.008000
30369         OT  4721  TIP3   OH2 30369  -0.834000  15.999400
30370         HT  4721  TIP3    H1 30370   0.417000   1.008000
30371         HT  4721  TIP3    H2 30371   0.417000   1.008000
30372         OT  4722  TIP3   OH2 30372  -0.834000  15.999400
30373         HT  4722  TIP3    H1 30373   0.417000   1.008000
30374         HT  4722  TIP3    H2 30374   0.417000   1.008000
30375         OT  4723  TIP3   OH2 30375  -0.834000  15.999400
30376         HT  4723  TIP3    H1 30376   0.417000   1.008000
30377         HT  4723  TIP3    H2 30377   0.417000   1.008000
30378         OT  4724  TIP3   OH2 30378  -0.834000  15.999400
30379         HT  4724  TIP3    H1 30379   0.417000   1.008000
30380         HT  4724  TIP3    H2 30380   0.417000   1.008000
30381         OT  4725  TIP3   OH2 30381  -0.834000  15.999400
30382         HT  4725  TIP3    H1 30382   0.417000   1.008000
30383         HT  4725  TIP3    H2 30383   0.417000   1.008000
30384         OT  4726  TIP3   OH2 30384  -0.834000  15.999400
30385         HT  4726  TIP3    H1 30385   0.417000   1.008000
30386         HT  4726  TIP3    H2 30386   0.417000   1.008000
30387         OT  4727  TIP3   OH2 30387  -0.834000  15.999400
30388         HT  4727  TIP3    H1 30388   0.417000   1.008000
30389         HT  4727  TIP3    H2 30389   0.417000   1.008000
30390         OT  4728  TIP3   OH2 30390  -0.834000  15.999400
30391         HT  4728  TIP3    H1 30391   0.417000   1.008000
30392         HT  4728  TIP3    H2 30392   0.417000   1.008000
30393         OT  4729  TIP3   OH2 30393  -0.834000  15.999400
30394         HT  4729  TIP3    H1 30394   0.417000   1.008000
30395         HT  4729  TIP3    H2 30395   0.417000   1.008000
30396         OT  4730  TIP3   OH2 30396  -0.834000  15.999400
30397         HT  4730  TIP3    H1 30397   0.417000   1.008000
30398         HT  4730  TIP3    H2 30398   0.417000   1.008000
30399         OT  4731  TIP3   OH2 30399  -0.834000  15.999400
30400         HT  4731  TIP3    H1 30400   0.417000   1.008000
30401         HT  4731  TIP3    H2 30401   0.417000   1.008000
30402         OT  4732  TIP3   OH2 30402  -0.834000  15.999400
30403         HT  4732  TIP3    H1 30403   0.417000   1.008000
30404         HT  4732  TIP3    H2 30404   0.417000   1.008000
30405         OT  4733  TIP3   OH2 30405  -0.834000  15.999400
30406         HT  4733  TIP3    H1 30406   0.417000   1.008000
30407         HT  4733  TIP3    H2 30407   0.417000   1.008000
30408         OT  4734  TIP3   OH2 30408  -0.834000  15.999400
30409         HT  4734  TIP3    H1 30409   0.417000   1.008000
30410         HT  4734  TIP3    H2 30410   0.417000   1.008000
30411         OT  4735  TIP3   OH2 30411  -0.834000  15.999400
30412         HT  4735  TIP3    H1 30412   0.417000   1.008000
30413         HT  4735  TIP3    H2 30413   0.417000   1.008000
30414         OT  4736  TIP3   OH2 30414  -0.834000  15.999400
30415         HT  4736  TIP3    H1 30415   0.417000   1.008000
30416         HT  4736  TIP3    H2 30416   0.417000   1.008000
30417         OT  4737  TIP3   OH2 30417  -0.834000  15.999400
30418         HT  4737  TIP3    H1 30418   0.417000   1.008000
30419         HT  4737  TIP3    H2 30419   0.417000   1.008000
30420         OT  4738  TIP3   OH2 30420  -0.834000  15.999400
30421         HT  4738  TIP3    H1 30421   0.417000   1.008000
30422         HT  4738  TIP3    H2 30422   0.417000   1.008000
30423         OT  4739  TIP3   OH2 30423  -0.834000  15.999400
30424         HT  4739  TIP3    H1 30424   0.417000   1.008000
30425         HT  4739  TIP3    H2 30425   0.417000   1.008000
30426         OT  4740  TIP3   OH2 30426  -0.834000  15.999400
30427         HT  4740  TIP3    H1 30427   0.417000   1.008000
30428         HT  4740  TIP3    H2 30428   0.417000   1.008000
30429         OT  4741  TIP3   OH2 30429  -0.834000  15.999400
30430         HT  4741  TIP3    H1 30430   0.417000   1.008000
30431         HT  4741  TIP3    H2 30431   0.417000   1.008000
30432         OT  4742  TIP3   OH2 30432  -0.834000  15.999400
30433         HT  4742  TIP3    H1 30433   0.417000   1.008000
30434         HT  4742  TIP3    H2 30434   0.417000   1.008000
30435         OT  4743  TIP3   OH2 30435  -0.834000  15.999400
30436         HT  4743  TIP3    H1 30436   0.417000   1.008000
30437         HT  4743  TIP3    H2 30437   0.417000   1.008000
30438         OT  4744  TIP3   OH2 30438  -0.834000  15.999400
30439         HT  4744  TIP3    H1 30439   0.417000   1.008000
30440         HT  4744  TIP3    H2 30440   0.417000   1.008000
30441         OT  4745  TIP3   OH2 30441  -0.834000  15.999400
30442         HT  4745  TIP3    H1 30442   0.417000   1.008000
30443         HT  4745  TIP3    H2 30443   0.417000   1.008000
30444         OT  4746  TIP3   OH2 30444  -0.834000  15.999400
30445         HT  4746  TIP3    H1 30445   0.417000   1.008000
30446         HT  4746  TIP3    H2 30446   0.417000   1.008000
30447         OT  4747  TIP3   OH2 30447  -0.834000  15.999400
30448         HT  4747  TIP3    H1 30448   0.417000   1.008000
30449         HT  4747  TIP3    H2 30449   0.417000   1.008000
30450         OT  4748  TIP3   OH2 30450  -0.834000  15.999400
30451         HT  4748  TIP3    H1 30451   0.417000   1.008000
30452         HT  4748  TIP3    H2 30452   0.417000   1.008000
30453         OT  4749  TIP3   OH2 30453  -0.834000  15.999400
30454         HT  4749  TIP3    H1 30454   0.417000   1.008000
30455         HT  4749  TIP3    H2 30455   0.417000   1.008000
30456         OT  4750  TIP3   OH2 30456  -0.834000  15.999400
30457         HT  4750  TIP3    H1 30457   0.417000   1.008000
30458         HT  4750  TIP3    H2 30458   0.417000   1.008000
30459         OT  4751  TIP3   OH2 30459  -0.834000  15.999400
30460         HT  4751  TIP3    H1 30460   0.417000   1.008000
30461         HT  4751  TIP3    H2 30461   0.417000   1.008000
30462         OT  4752  TIP3   OH2 30462  -0.834000  15.999400
30463         HT  4752  TIP3    H1 30463   0.417000   1.008000
30464         HT  4752  TIP3    H2 30464   0.417000   1.008000
30465         OT  4753  TIP3   OH2 30465  -0.834000  15.999400
30466         HT  4753  TIP3    H1 30466   0.417000   1.008000
30467         HT  4753  TIP3    H2 30467   0.417000   1.008000
30468         OT  4754  TIP3   OH2 30468  -0.834000  15.999400
30469         HT  4754  TIP3    H1 30469   0.417000   1.008000
30470         HT  4754  TIP3    H2 30470   0.417000   1.008000
30471         OT  4755  TIP3   OH2 30471  -0.834000  15.999400
30472         HT  4755  TIP3    H1 30472   0.417000   1.008000
30473         HT  4755  TIP3    H2 30473   0.417000   1.008000
30474         OT  4756  TIP3   OH2 30474  -0.834000  15.999400
30475         HT  4756  TIP3    H1 30475   0.417000   1.008000
30476         HT  4756  TIP3    H2 30476   0.417000   1.008000
30477         OT  4757  TIP3   OH2 30477  -0.834000  15.999400
30478         HT  4757  TIP3    H1 30478   0.417000   1.008000
30479         HT  4757  TIP3    H2 30479   0.417000   1.008000
30480         OT  4758  TIP3   OH2 30480  -0.834000  15.999400
30481         HT  4758  TIP3    H1 30481   0.417000   1.008000
30482         HT  4758  TIP3    H2 30482   0.417000   1.008000
30483         OT  4759  TIP3   OH2 30483  -0.834000  15.999400
30484         HT  4759  TIP3    H1 30484   0.417000   1.008000
30485         HT  4759  TIP3    H2 30485   0.417000   1.008000
30486         OT  4760  TIP3   OH2 30486  -0.834000  15.999400
30487         HT  4760  TIP3    H1 30487   0.417000   1.008000
30488         HT  4760  TIP3    H2 30488   0.417000   1.008000
30489         OT  4761  TIP3   OH2 30489  -0.834000  15.999400
30490         HT  4761  TIP3    H1 30490   0.417000   1.008000
30491         HT  4761  TIP3    H2 30491   0.417000   1.008000
30492         OT  4762  TIP3   OH2 30492  -0.834000  15.999400
30493         HT  4762  TIP3    H1 30493   0.417000   1.008000
30494         HT  4762  TIP3    H2 30494   0.417000   1.008000
30495         OT  4763  TIP3   OH2 30495  -0.834000  15.999400
30496         HT  4763  TIP3    H1 30496   0.417000   1.008000
30497         HT  4763  TIP3    H2 30497   0.417000   1.008000
30498         OT  4764  TIP3   OH2 30498  -0.834000  15.999400
30499         HT  4764  TIP3    H1 30499   0.417000   1.008000
30500         HT  4764  TIP3    H2 30500   0.417000   1.008000
30501         OT  4765  TIP3   OH2 30501  -0.834000  15.999400
30502         HT  4765  TIP3    H1 30502   0.417000   1.008000
30503         HT  4765  TIP3    H2 30503   0.417000   1.008000
30504         OT  4766  TIP3   OH2 30504  -0.834000  15.999400
30505         HT  4766  TIP3    H1 30505   0.417000   1.008000
30506         HT  4766  TIP3    H2 30506   0.417000   1.008000
30507         OT  4767  TIP3   OH2 30507  -0.834000  15.999400
30508         HT  4767  TIP3    H1 30508   0.417000   1.008000
30509         HT  4767  TIP3    H2 30509   0.417000   1.008000
30510         OT  4768  TIP3   OH2 30510  -0.834000  15.999400
30511         HT  4768  TIP3    H1 30511   0.417000   1.008000
30512         HT  4768  TIP3    H2 30512   0.417000   1.008000
30513         OT  4769  TIP3   OH2 30513  -0.834000  15.999400
30514         HT  4769  TIP3    H1 30514   0.417000   1.008000
30515         HT  4769  TIP3    H2 30515   0.417000   1.008000
30516         OT  4770  TIP3   OH2 30516  -0.834000  15.999400
30517         HT  4770  TIP3    H1 30517   0.417000   1.008000
30518         HT  4770  TIP3    H2 30518   0.417000   1.008000
30519         OT  4771  TIP3   OH2 30519  -0.834000  15.999400
30520         HT  4771  TIP3    H1 30520   0.417000   1.008000
30521         HT  4771  TIP3    H2 30521   0.417000   1.008000
30522         OT  4772  TIP3   OH2 30522  -0.834000  15.999400
30523         HT  4772  TIP3    H1 30523   0.417000   1.008000
30524         HT  4772  TIP3    H2 30524   0.417000   1.008000
30525         OT  4773  TIP3   OH2 30525  -0.834000  15.999400
30526         HT  4773  TIP3    H1 30526   0.417000   1.008000
30527         HT  4773  TIP3    H2 30527   0.417000   1.008000
30528         OT  4774  TIP3   OH2 30528  -0.834000  15.999400
30529         HT  4774  TIP3    H1 30529   0.417000   1.008000
30530         HT  4774  TIP3    H2 30530   0.417000   1.008000
30531         OT  4775  TIP3   OH2 30531  -0.834000  15.999400
30532         HT  4775  TIP3    H1 30532   0.417000   1.008000
30533         HT  4775  TIP3    H2 30533   0.417000   1.008000
30534         OT  4776  TIP3   OH2 30534  -0.834000  15.999400
30535         HT  4776  TIP3    H1 30535   0.417000   1.008000
30536         HT  4776  TIP3    H2 30536   0.417000   1.008000
30537         OT  4777  TIP3   OH2 30537  -0.834000  15.999400
30538         HT  4777  TIP3    H1 30538   0.417000   1.008000
30539         HT  4777  TIP3    H2 30539   0.417000   1.008000
30540         OT  4778  TIP3   OH2 30540  -0.834000  15.999400
30541         HT  4778  TIP3    H1 30541   0.417000   1.008000
30542         HT  4778  TIP3    H2 30542   0.417000   1.008000
30543         OT  4779  TIP3   OH2 30543  -0.834000  15.999400
30544         HT  4779  TIP3    H1 30544   0.417000   1.008000
30545         HT  4779  TIP3    H2 30545   0.417000   1.008000
30546         OT  4780  TIP3   OH2 30546  -0.834000  15.999400
30547         HT  4780  TIP3    H1 30547   0.417000   1.008000
30548         HT  4780  TIP3    H2 30548   0.417000   1.008000
30549         OT  4781  TIP3   OH2 30549  -0.834000  15.999400
30550         HT  4781  TIP3    H1 30550   0.417000   1.008000
30551         HT  4781  TIP3    H2 30551   0.417000   1.008000
30552         OT  4782  TIP3   OH2 30552  -0.834000  15.999400
30553         HT  4782  TIP3    H1 30553   0.417000   1.008000
30554         HT  4782  TIP3    H2 30554   0.417000   1.008000
30555         OT  4783  TIP3   OH2 30555  -0.834000  15.999400
30556         HT  4783  TIP3    H1 30556   0.417000   1.008000
30557         HT  4783  TIP3    H2 30557   0.417000   1.008000
30558         OT  4784  TIP3   OH2 30558  -0.834000  15.999400
30559         HT  4784  TIP3    H1 30559   0.417000   1.008000
30560         HT  4784  TIP3    H2 30560   0.417000   1.008000
30561         OT  4785  TIP3   OH2 30561  -0.834000  15.999400
30562         HT  4785  TIP3    H1 30562   0.417000   1.008000
30563         HT  4785  TIP3    H2 30563   0.417000   1.008000
30564         OT  4786  TIP3   OH2 30564  -0.834000  15.999400
30565         HT  4786  TIP3    H1 30565   0.417000   1.008000
30566         HT  4786  TIP3    H2 30566   0.417000   1.008000
30567         OT  4787  TIP3   OH2 30567  -0.834000  15.999400
30568         HT  4787  TIP3    H1 30568   0.417000   1.008000
30569         HT  4787  TIP3    H2 30569   0.417000   1.008000
30570         OT  4788  TIP3   OH2 30570  -0.834000  15.999400
30571         HT  4788  TIP3    H1 30571   0.417000   1.008000
30572         HT  4788  TIP3    H2 30572   0.417000   1.008000
30573         OT  4789  TIP3   OH2 30573  -0.834000  15.999400
30574         HT  4789  TIP3    H1 30574   0.417000   1.008000
30575         HT  4789  TIP3    H2 30575   0.417000   1.008000
30576         OT  4790  TIP3   OH2 30576  -0.834000  15.999400
30577         HT  4790  TIP3    H1 30577   0.417000   1.008000
30578         HT  4790  TIP3    H2 30578   0.417000   1.008000
30579         OT  4791  TIP3   OH2 30579  -0.834000  15.999400
30580         HT  4791  TIP3    H1 30580   0.417000   1.008000
30581         HT  4791  TIP3    H2 30581   0.417000   1.008000
30582         OT  4792  TIP3   OH2 30582  -0.834000  15.999400
30583         HT  4792  TIP3    H1 30583   0.417000   1.008000
30584         HT  4792  TIP3    H2 30584   0.417000   1.008000
30585         OT  4793  TIP3   OH2 30585  -0.834000  15.999400
30586         HT  4793  TIP3    H1 30586   0.417000   1.008000
30587         HT  4793  TIP3    H2 30587   0.417000   1.008000
30588         OT  4794  TIP3   OH2 30588  -0.834000  15.999400
30589         HT  4794  TIP3    H1 30589   0.417000   1.008000
30590         HT  4794  TIP3    H2 30590   0.417000   1.008000
30591         OT  4795  TIP3   OH2 30591  -0.834000  15.999400
30592         HT  4795  TIP3    H1 30592   0.417000   1.008000
30593         HT  4795  TIP3    H2 30593   0.417000   1.008000
30594         OT  4796  TIP3   OH2 30594  -0.834000  15.999400
30595         HT  4796  TIP3    H1 30595   0.417000   1.008000
30596         HT  4796  TIP3    H2 30596   0.417000   1.008000
30597         OT  4797  TIP3   OH2 30597  -0.834000  15.999400
30598         HT  4797  TIP3    H1 30598   0.417000   1.008000
30599         HT  4797  TIP3    H2 30599   0.417000   1.008000
30600         OT  4798  TIP3   OH2 30600  -0.834000  15.999400
30601         HT  4798  TIP3    H1 30601   0.417000   1.008000
30602         HT  4798  TIP3    H2 30602   0.417000   1.008000
30603         OT  4799  TIP3   OH2 30603  -0.834000  15.999400
30604         HT  4799  TIP3    H1 30604   0.417000   1.008000
30605         HT  4799  TIP3    H2 30605   0.417000   1.008000
30606         OT  4800  TIP3   OH2 30606  -0.834000  15.999400
30607         HT  4800  TIP3    H1 30607   0.417000   1.008000
30608         HT  4800  TIP3    H2 30608   0.417000   1.008000
30609         OT  4801  TIP3   OH2 30609  -0.834000  15.999400
30610         HT  4801  TIP3    H1 30610   0.417000   1.008000
30611         HT  4801  TIP3    H2 30611   0.417000   1.008000
30612         OT  4802  TIP3   OH2 30612  -0.834000  15.999400
30613         HT  4802  TIP3    H1 30613   0.417000   1.008000
30614         HT  4802  TIP3    H2 30614   0.417000   1.008000
30615         OT  4803  TIP3   OH2 30615  -0.834000  15.999400
30616         HT  4803  TIP3    H1 30616   0.417000   1.008000
30617         HT  4803  TIP3    H2 30617   0.417000   1.008000
30618         OT  4804  TIP3   OH2 30618  -0.834000  15.999400
30619         HT  4804  TIP3    H1 30619   0.417000   1.008000
30620         HT  4804  TIP3    H2 30620   0.417000   1.008000
30621         OT  4805  TIP3   OH2 30621  -0.834000  15.999400
30622         HT  4805  TIP3    H1 30622   0.417000   1.008000
30623         HT  4805  TIP3    H2 30623   0.417000   1.008000
30624         OT  4806  TIP3   OH2 30624  -0.834000  15.999400
30625         HT  4806  TIP3    H1 30625   0.417000   1.008000
30626         HT  4806  TIP3    H2 30626   0.417000   1.008000
30627         OT  4807  TIP3   OH2 30627  -0.834000  15.999400
30628         HT  4807  TIP3    H1 30628   0.417000   1.008000
30629         HT  4807  TIP3    H2 30629   0.417000   1.008000
30630         OT  4808  TIP3   OH2 30630  -0.834000  15.999400
30631         HT  4808  TIP3    H1 30631   0.417000   1.008000
30632         HT  4808  TIP3    H2 30632   0.417000   1.008000
30633         OT  4809  TIP3   OH2 30633  -0.834000  15.999400
30634         HT  4809  TIP3    H1 30634   0.417000   1.008000
30635         HT  4809  TIP3    H2 30635   0.417000   1.008000
30636         OT  4810  TIP3   OH2 30636  -0.834000  15.999400
30637         HT  4810  TIP3    H1 30637   0.417000   1.008000
30638         HT  4810  TIP3    H2 30638   0.417000   1.008000
30639         OT  4811  TIP3   OH2 30639  -0.834000  15.999400
30640         HT  4811  TIP3    H1 30640   0.417000   1.008000
30641         HT  4811  TIP3    H2 30641   0.417000   1.008000
30642         OT  4812  TIP3   OH2 30642  -0.834000  15.999400
30643         HT  4812  TIP3    H1 30643   0.417000   1.008000
30644         HT  4812  TIP3    H2 30644   0.417000   1.008000
30645         OT  4813  TIP3   OH2 30645  -0.834000  15.999400
30646         HT  4813  TIP3    H1 30646   0.417000   1.008000
30647         HT  4813  TIP3    H2 30647   0.417000   1.008000
30648         OT  4814  TIP3   OH2 30648  -0.834000  15.999400
30649         HT  4814  TIP3    H1 30649   0.417000   1.008000
30650         HT  4814  TIP3    H2 30650   0.417000   1.008000
30651         OT  4815  TIP3   OH2 30651  -0.834000  15.999400
30652         HT  4815  TIP3    H1 30652   0.417000   1.008000
30653         HT  4815  TIP3    H2 30653   0.417000   1.008000
30654         OT  4816  TIP3   OH2 30654  -0.834000  15.999400
30655         HT  4816  TIP3    H1 30655   0.417000   1.008000
30656         HT  4816  TIP3    H2 30656   0.417000   1.008000
30657         OT  4817  TIP3   OH2 30657  -0.834000  15.999400
30658         HT  4817  TIP3    H1 30658   0.417000   1.008000
30659         HT  4817  TIP3    H2 30659   0.417000   1.008000
30660         OT  4818  TIP3   OH2 30660  -0.834000  15.999400
30661         HT  4818  TIP3    H1 30661   0.417000   1.008000
30662         HT  4818  TIP3    H2 30662   0.417000   1.008000
30663         OT  4819  TIP3   OH2 30663  -0.834000  15.999400
30664         HT  4819  TIP3    H1 30664   0.417000   1.008000
30665         HT  4819  TIP3    H2 30665   0.417000   1.008000
30666         OT  4820  TIP3   OH2 30666  -0.834000  15.999400
30667         HT  4820  TIP3    H1 30667   0.417000   1.008000
30668         HT  4820  TIP3    H2 30668   0.417000   1.008000
30669         OT  4821  TIP3   OH2 30669  -0.834000  15.999400
30670         HT  4821  TIP3    H1 30670   0.417000   1.008000
30671         HT  4821  TIP3    H2 30671   0.417000   1.008000
30672         OT  4822  TIP3   OH2 30672  -0.834000  15.999400
30673         HT  4822  TIP3    H1 30673   0.417000   1.008000
30674         HT  4822  TIP3    H2 30674   0.417000   1.008000
30675         OT  4823  TIP3   OH2 30675  -0.834000  15.999400
30676         HT  4823  TIP3    H1 30676   0.417000   1.008000
30677         HT  4823  TIP3    H2 30677   0.417000   1.008000
30678         OT  4824  TIP3   OH2 30678  -0.834000  15.999400
30679         HT  4824  TIP3    H1 30679   0.417000   1.008000
30680         HT  4824  TIP3    H2 30680   0.417000   1.008000
30681         OT  4825  TIP3   OH2 30681  -0.834000  15.999400
30682         HT  4825  TIP3    H1 30682   0.417000   1.008000
30683         HT  4825  TIP3    H2 30683   0.417000   1.008000
30684         OT  4826  TIP3   OH2 30684  -0.834000  15.999400
30685         HT  4826  TIP3    H1 30685   0.417000   1.008000
30686         HT  4826  TIP3    H2 30686   0.417000   1.008000
30687         OT  4827  TIP3   OH2 30687  -0.834000  15.999400
30688         HT  4827  TIP3    H1 30688   0.417000   1.008000
30689         HT  4827  TIP3    H2 30689   0.417000   1.008000
30690         OT  4828  TIP3   OH2 30690  -0.834000  15.999400
30691         HT  4828  TIP3    H1 30691   0.417000   1.008000
30692         HT  4828  TIP3    H2 30692   0.417000   1.008000
30693         OT  4829  TIP3   OH2 30693  -0.834000  15.999400
30694         HT  4829  TIP3    H1 30694   0.417000   1.008000
30695         HT  4829  TIP3    H2 30695   0.417000   1.008000
30696         OT  4830  TIP3   OH2 30696  -0.834000  15.999400
30697         HT  4830  TIP3    H1 30697   0.417000   1.008000
30698         HT  4830  TIP3    H2 30698   0.417000   1.008000
30699         OT  4831  TIP3   OH2 30699  -0.834000  15.999400
30700         HT  4831  TIP3    H1 30700   0.417000   1.008000
30701         HT  4831  TIP3    H2 30701   0.417000   1.008000
30702         OT  4832  TIP3   OH2 30702  -0.834000  15.999400
30703         HT  4832  TIP3    H1 30703   0.417000   1.008000
30704         HT  4832  TIP3    H2 30704   0.417000   1.008000
30705         OT  4833  TIP3   OH2 30705  -0.834000  15.999400
30706         HT  4833  TIP3    H1 30706   0.417000   1.008000
30707         HT  4833  TIP3    H2 30707   0.417000   1.008000
30708         OT  4834  TIP3   OH2 30708  -0.834000  15.999400
30709         HT  4834  TIP3    H1 30709   0.417000   1.008000
30710         HT  4834  TIP3    H2 30710   0.417000   1.008000
30711         OT  4835  TIP3   OH2 30711  -0.834000  15.999400
30712         HT  4835  TIP3    H1 30712   0.417000   1.008000
30713         HT  4835  TIP3    H2 30713   0.417000   1.008000
30714         OT  4836  TIP3   OH2 30714  -0.834000  15.999400
30715         HT  4836  TIP3    H1 30715   0.417000   1.008000
30716         HT  4836  TIP3    H2 30716   0.417000   1.008000
30717         OT  4837  TIP3   OH2 30717  -0.834000  15.999400
30718         HT  4837  TIP3    H1 30718   0.417000   1.008000
30719         HT  4837  TIP3    H2 30719   0.417000   1.008000
30720         OT  4838  TIP3   OH2 30720  -0.834000  15.999400
30721         HT  4838  TIP3    H1 30721   0.417000   1.008000
30722         HT  4838  TIP3    H2 30722   0.417000   1.008000
30723         OT  4839  TIP3   OH2 30723  -0.834000  15.999400
30724         HT  4839  TIP3    H1 30724   0.417000   1.008000
30725         HT  4839  TIP3    H2 30725   0.417000   1.008000
30726         OT  4840  TIP3   OH2 30726  -0.834000  15.999400
30727         HT  4840  TIP3    H1 30727   0.417000   1.008000
30728         HT  4840  TIP3    H2 30728   0.417000   1.008000
30729         OT  4841  TIP3   OH2 30729  -0.834000  15.999400
30730         HT  4841  TIP3    H1 30730   0.417000   1.008000
30731         HT  4841  TIP3    H2 30731   0.417000   1.008000
30732         OT  4842  TIP3   OH2 30732  -0.834000  15.999400
30733         HT  4842  TIP3    H1 30733   0.417000   1.008000
30734         HT  4842  TIP3    H2 30734   0.417000   1.008000
30735         OT  4843  TIP3   OH2 30735  -0.834000  15.999400
30736         HT  4843  TIP3    H1 30736   0.417000   1.008000
30737         HT  4843  TIP3    H2 30737   0.417000   1.008000
30738         OT  4844  TIP3   OH2 30738  -0.834000  15.999400
30739         HT  4844  TIP3    H1 30739   0.417000   1.008000
30740         HT  4844  TIP3    H2 30740   0.417000   1.008000
30741         OT  4845  TIP3   OH2 30741  -0.834000  15.999400
30742         HT  4845  TIP3    H1 30742   0.417000   1.008000
30743         HT  4845  TIP3    H2 30743   0.417000   1.008000
30744         OT  4846  TIP3   OH2 30744  -0.834000  15.999400
30745         HT  4846  TIP3    H1 30745   0.417000   1.008000
30746         HT  4846  TIP3    H2 30746   0.417000   1.008000
30747         OT  4847  TIP3   OH2 30747  -0.834000  15.999400
30748         HT  4847  TIP3    H1 30748   0.417000   1.008000
30749         HT  4847  TIP3    H2 30749   0.417000   1.008000
30750         OT  4848  TIP3   OH2 30750  -0.834000  15.999400
30751         HT  4848  TIP3    H1 30751   0.417000   1.008000
30752         HT  4848  TIP3    H2 30752   0.417000   1.008000
30753         OT  4849  TIP3   OH2 30753  -0.834000  15.999400
30754         HT  4849  TIP3    H1 30754   0.417000   1.008000
30755         HT  4849  TIP3    H2 30755   0.417000   1.008000
30756         OT  4850  TIP3   OH2 30756  -0.834000  15.999400
30757         HT  4850  TIP3    H1 30757   0.417000   1.008000
30758         HT  4850  TIP3    H2 30758   0.417000   1.008000
30759         OT  4851  TIP3   OH2 30759  -0.834000  15.999400
30760         HT  4851  TIP3    H1 30760   0.417000   1.008000
30761         HT  4851  TIP3    H2 30761   0.417000   1.008000
30762         OT  4852  TIP3   OH2 30762  -0.834000  15.999400
30763         HT  4852  TIP3    H1 30763   0.417000   1.008000
30764         HT  4852  TIP3    H2 30764   0.417000   1.008000
30765         OT  4853  TIP3   OH2 30765  -0.834000  15.999400
30766         HT  4853  TIP3    H1 30766   0.417000   1.008000
30767         HT  4853  TIP3    H2 30767   0.417000   1.008000
30768         OT  4854  TIP3   OH2 30768  -0.834000  15.999400
30769         HT  4854  TIP3    H1 30769   0.417000   1.008000
30770         HT  4854  TIP3    H2 30770   0.417000   1.008000
30771         OT  4855  TIP3   OH2 30771  -0.834000  15.999400
30772         HT  4855  TIP3    H1 30772   0.417000   1.008000
30773         HT  4855  TIP3    H2 30773   0.417000   1.008000
30774         OT  4856  TIP3   OH2 30774  -0.834000  15.999400
30775         HT  4856  TIP3    H1 30775   0.417000   1.008000
30776         HT  4856  TIP3    H2 30776   0.417000   1.008000
30777         OT  4857  TIP3   OH2 30777  -0.834000  15.999400
30778         HT  4857  TIP3    H1 30778   0.417000   1.008000
30779         HT  4857  TIP3    H2 30779   0.417000   1.008000
30780         OT  4858  TIP3   OH2 30780  -0.834000  15.999400
30781         HT  4858  TIP3    H1 30781   0.417000   1.008000
30782         HT  4858  TIP3    H2 30782   0.417000   1.008000
30783         OT  4859  TIP3   OH2 30783  -0.834000  15.999400
30784         HT  4859  TIP3    H1 30784   0.417000   1.008000
30785         HT  4859  TIP3    H2 30785   0.417000   1.008000
30786         OT  4860  TIP3   OH2 30786  -0.834000  15.999400
30787         HT  4860  TIP3    H1 30787   0.417000   1.008000
30788         HT  4860  TIP3    H2 30788   0.417000   1.008000
30789         OT  4861  TIP3   OH2 30789  -0.834000  15.999400
30790         HT  4861  TIP3    H1 30790   0.417000   1.008000
30791         HT  4861  TIP3    H2 30791   0.417000   1.008000
30792         OT  4862  TIP3   OH2 30792  -0.834000  15.999400
30793         HT  4862  TIP3    H1 30793   0.417000   1.008000
30794         HT  4862  TIP3    H2 30794   0.417000   1.008000
30795         OT  4863  TIP3   OH2 30795  -0.834000  15.999400
30796         HT  4863  TIP3    H1 30796   0.417000   1.008000
30797         HT  4863  TIP3    H2 30797   0.417000   1.008000
30798         OT  4864  TIP3   OH2 30798  -0.834000  15.999400
30799         HT  4864  TIP3    H1 30799   0.417000   1.008000
30800         HT  4864  TIP3    H2 30800   0.417000   1.008000
30801         OT  4865  TIP3   OH2 30801  -0.834000  15.999400
30802         HT  4865  TIP3    H1 30802   0.417000   1.008000
30803         HT  4865  TIP3    H2 30803   0.417000   1.008000
30804         OT  4866  TIP3   OH2 30804  -0.834000  15.999400
30805         HT  4866  TIP3    H1 30805   0.417000   1.008000
30806         HT  4866  TIP3    H2 30806   0.417000   1.008000
30807         OT  4867  TIP3   OH2 30807  -0.834000  15.999400
30808         HT  4867  TIP3    H1 30808   0.417000   1.008000
30809         HT  4867  TIP3    H2 30809   0.417000   1.008000
30810         OT  4868  TIP3   OH2 30810  -0.834000  15.999400
30811         HT  4868  TIP3    H1 30811   0.417000   1.008000
30812         HT  4868  TIP3    H2 30812   0.417000   1.008000
30813         OT  4869  TIP3   OH2 30813  -0.834000  15.999400
30814         HT  4869  TIP3    H1 30814   0.417000   1.008000
30815         HT  4869  TIP3    H2 30815   0.417000   1.008000
30816         OT  4870  TIP3   OH2 30816  -0.834000  15.999400
30817         HT  4870  TIP3    H1 30817   0.417000   1.008000
30818         HT  4870  TIP3    H2 30818   0.417000   1.008000
30819         OT  4871  TIP3   OH2 30819  -0.834000  15.999400
30820         HT  4871  TIP3    H1 30820   0.417000   1.008000
30821         HT  4871  TIP3    H2 30821   0.417000   1.008000
30822         OT  4872  TIP3   OH2 30822  -0.834000  15.999400
30823         HT  4872  TIP3    H1 30823   0.417000   1.008000
30824         HT  4872  TIP3    H2 30824   0.417000   1.008000
30825         OT  4873  TIP3   OH2 30825  -0.834000  15.999400
30826         HT  4873  TIP3    H1 30826   0.417000   1.008000
30827         HT  4873  TIP3    H2 30827   0.417000   1.008000
30828         OT  4874  TIP3   OH2 30828  -0.834000  15.999400
30829         HT  4874  TIP3    H1 30829   0.417000   1.008000
30830         HT  4874  TIP3    H2 30830   0.417000   1.008000
30831         OT  4875  TIP3   OH2 30831  -0.834000  15.999400
30832         HT  4875  TIP3    H1 30832   0.417000   1.008000
30833         HT  4875  TIP3    H2 30833   0.417000   1.008000
30834         OT  4876  TIP3   OH2 30834  -0.834000  15.999400
30835         HT  4876  TIP3    H1 30835   0.417000   1.008000
30836         HT  4876  TIP3    H2 30836   0.417000   1.008000
30837         OT  4877  TIP3   OH2 30837  -0.834000  15.999400
30838         HT  4877  TIP3    H1 30838   0.417000   1.008000
30839         HT  4877  TIP3    H2 30839   0.417000   1.008000
30840         OT  4878  TIP3   OH2 30840  -0.834000  15.999400
30841         HT  4878  TIP3    H1 30841   0.417000   1.008000
30842         HT  4878  TIP3    H2 30842   0.417000   1.008000
30843         OT  4879  TIP3   OH2 30843  -0.834000  15.999400
30844         HT  4879  TIP3    H1 30844   0.417000   1.008000
30845         HT  4879  TIP3    H2 30845   0.417000   1.008000
30846         OT  4880  TIP3   OH2 30846  -0.834000  15.999400
30847         HT  4880  TIP3    H1 30847   0.417000   1.008000
30848         HT  4880  TIP3    H2 30848   0.417000   1.008000
30849         OT  4881  TIP3   OH2 30849  -0.834000  15.999400
30850         HT  4881  TIP3    H1 30850   0.417000   1.008000
30851         HT  4881  TIP3    H2 30851   0.417000   1.008000
30852         OT  4882  TIP3   OH2 30852  -0.834000  15.999400
30853         HT  4882  TIP3    H1 30853   0.417000   1.008000
30854         HT  4882  TIP3    H2 30854   0.417000   1.008000
30855         OT  4883  TIP3   OH2 30855  -0.834000  15.999400
30856         HT  4883  TIP3    H1 30856   0.417000   1.008000
30857         HT  4883  TIP3    H2 30857   0.417000   1.008000
30858         OT  4884  TIP3   OH2 30858  -0.834000  15.999400
30859         HT  4884  TIP3    H1 30859   0.417000   1.008000
30860         HT  4884  TIP3    H2 30860   0.417000   1.008000
30861         OT  4885  TIP3   OH2 30861  -0.834000  15.999400
30862         HT  4885  TIP3    H1 30862   0.417000   1.008000
30863         HT  4885  TIP3    H2 30863   0.417000   1.008000
30864         OT  4886  TIP3   OH2 30864  -0.834000  15.999400
30865         HT  4886  TIP3    H1 30865   0.417000   1.008000
30866         HT  4886  TIP3    H2 30866   0.417000   1.008000
30867         OT  4887  TIP3   OH2 30867  -0.834000  15.999400
30868         HT  4887  TIP3    H1 30868   0.417000   1.008000
30869         HT  4887  TIP3    H2 30869   0.417000   1.008000
30870         OT  4888  TIP3   OH2 30870  -0.834000  15.999400
30871         HT  4888  TIP3    H1 30871   0.417000   1.008000
30872         HT  4888  TIP3    H2 30872   0.417000   1.008000
30873         OT  4889  TIP3   OH2 30873  -0.834000  15.999400
30874         HT  4889  TIP3    H1 30874   0.417000   1.008000
30875         HT  4889  TIP3    H2 30875   0.417000   1.008000
30876         OT  4890  TIP3   OH2 30876  -0.834000  15.999400
30877         HT  4890  TIP3    H1 30877   0.417000   1.008000
30878         HT  4890  TIP3    H2 30878   0.417000   1.008000
30879         OT  4891  TIP3   OH2 30879  -0.834000  15.999400
30880         HT  4891  TIP3    H1 30880   0.417000   1.008000
30881         HT  4891  TIP3    H2 30881   0.417000   1.008000
30882         OT  4892  TIP3   OH2 30882  -0.834000  15.999400
30883         HT  4892  TIP3    H1 30883   0.417000   1.008000
30884         HT  4892  TIP3    H2 30884   0.417000   1.008000
30885         OT  4893  TIP3   OH2 30885  -0.834000  15.999400
30886         HT  4893  TIP3    H1 30886   0.417000   1.008000
30887         HT  4893  TIP3    H2 30887   0.417000   1.008000
30888         OT  4894  TIP3   OH2 30888  -0.834000  15.999400
30889         HT  4894  TIP3    H1 30889   0.417000   1.008000
30890         HT  4894  TIP3    H2 30890   0.417000   1.008000
30891         OT  4895  TIP3   OH2 30891  -0.834000  15.999400
30892         HT  4895  TIP3    H1 30892   0.417000   1.008000
30893         HT  4895  TIP3    H2 30893   0.417000   1.008000
30894         OT  4896  TIP3   OH2 30894  -0.834000  15.999400
30895         HT  4896  TIP3    H1 30895   0.417000   1.008000
30896         HT  4896  TIP3    H2 30896   0.417000   1.008000
30897         OT  4897  TIP3   OH2 30897  -0.834000  15.999400
30898         HT  4897  TIP3    H1 30898   0.417000   1.008000
30899         HT  4897  TIP3    H2 30899   0.417000   1.008000
30900         OT  4898  TIP3   OH2 30900  -0.834000  15.999400
30901         HT  4898  TIP3    H1 30901   0.417000   1.008000
30902         HT  4898  TIP3    H2 30902   0.417000   1.008000
30903         OT  4899  TIP3   OH2 30903  -0.834000  15.999400
30904         HT  4899  TIP3    H1 30904   0.417000   1.008000
30905         HT  4899  TIP3    H2 30905   0.417000   1.008000
30906         OT  4900  TIP3   OH2 30906  -0.834000  15.999400
30907         HT  4900  TIP3    H1 30907   0.417000   1.008000
30908         HT  4900  TIP3    H2 30908   0.417000   1.008000
30909         OT  4901  TIP3   OH2 30909  -0.834000  15.999400
30910         HT  4901  TIP3    H1 30910   0.417000   1.008000
30911         HT  4901  TIP3    H2 30911   0.417000   1.008000
30912         OT  4902  TIP3   OH2 30912  -0.834000  15.999400
30913         HT  4902  TIP3    H1 30913   0.417000   1.008000
30914         HT  4902  TIP3    H2 30914   0.417000   1.008000
30915         OT  4903  TIP3   OH2 30915  -0.834000  15.999400
30916         HT  4903  TIP3    H1 30916   0.417000   1.008000
30917         HT  4903  TIP3    H2 30917   0.417000   1.008000
30918         OT  4904  TIP3   OH2 30918  -0.834000  15.999400
30919         HT  4904  TIP3    H1 30919   0.417000   1.008000
30920         HT  4904  TIP3    H2 30920   0.417000   1.008000
30921         OT  4905  TIP3   OH2 30921  -0.834000  15.999400
30922         HT  4905  TIP3    H1 30922   0.417000   1.008000
30923         HT  4905  TIP3    H2 30923   0.417000   1.008000
30924         OT  4906  TIP3   OH2 30924  -0.834000  15.999400
30925         HT  4906  TIP3    H1 30925   0.417000   1.008000
30926         HT  4906  TIP3    H2 30926   0.417000   1.008000
30927         OT  4907  TIP3   OH2 30927  -0.834000  15.999400
30928         HT  4907  TIP3    H1 30928   0.417000   1.008000
30929         HT  4907  TIP3    H2 30929   0.417000   1.008000
30930         OT  4908  TIP3   OH2 30930  -0.834000  15.999400
30931         HT  4908  TIP3    H1 30931   0.417000   1.008000
30932         HT  4908  TIP3    H2 30932   0.417000   1.008000
30933         OT  4909  TIP3   OH2 30933  -0.834000  15.999400
30934         HT  4909  TIP3    H1 30934   0.417000   1.008000
30935         HT  4909  TIP3    H2 30935   0.417000   1.008000
30936         OT  4910  TIP3   OH2 30936  -0.834000  15.999400
30937         HT  4910  TIP3    H1 30937   0.417000   1.008000
30938         HT  4910  TIP3    H2 30938   0.417000   1.008000
30939         OT  4911  TIP3   OH2 30939  -0.834000  15.999400
30940         HT  4911  TIP3    H1 30940   0.417000   1.008000
30941         HT  4911  TIP3    H2 30941   0.417000   1.008000
30942         OT  4912  TIP3   OH2 30942  -0.834000  15.999400
30943         HT  4912  TIP3    H1 30943   0.417000   1.008000
30944         HT  4912  TIP3    H2 30944   0.417000   1.008000
30945         OT  4913  TIP3   OH2 30945  -0.834000  15.999400
30946         HT  4913  TIP3    H1 30946   0.417000   1.008000
30947         HT  4913  TIP3    H2 30947   0.417000   1.008000
30948         OT  4914  TIP3   OH2 30948  -0.834000  15.999400
30949         HT  4914  TIP3    H1 30949   0.417000   1.008000
30950         HT  4914  TIP3    H2 30950   0.417000   1.008000
30951         OT  4915  TIP3   OH2 30951  -0.834000  15.999400
30952         HT  4915  TIP3    H1 30952   0.417000   1.008000
30953         HT  4915  TIP3    H2 30953   0.417000   1.008000
30954         OT  4916  TIP3   OH2 30954  -0.834000  15.999400
30955         HT  4916  TIP3    H1 30955   0.417000   1.008000
30956         HT  4916  TIP3    H2 30956   0.417000   1.008000
30957         OT  4917  TIP3   OH2 30957  -0.834000  15.999400
30958         HT  4917  TIP3    H1 30958   0.417000   1.008000
30959         HT  4917  TIP3    H2 30959   0.417000   1.008000
30960         OT  4918  TIP3   OH2 30960  -0.834000  15.999400
30961         HT  4918  TIP3    H1 30961   0.417000   1.008000
30962         HT  4918  TIP3    H2 30962   0.417000   1.008000
30963         OT  4919  TIP3   OH2 30963  -0.834000  15.999400
30964         HT  4919  TIP3    H1 30964   0.417000   1.008000
30965         HT  4919  TIP3    H2 30965   0.417000   1.008000
30966         OT  4920  TIP3   OH2 30966  -0.834000  15.999400
30967         HT  4920  TIP3    H1 30967   0.417000   1.008000
30968         HT  4920  TIP3    H2 30968   0.417000   1.008000
30969         OT  4921  TIP3   OH2 30969  -0.834000  15.999400
30970         HT  4921  TIP3    H1 30970   0.417000   1.008000
30971         HT  4921  TIP3    H2 30971   0.417000   1.008000
30972         OT  4922  TIP3   OH2 30972  -0.834000  15.999400
30973         HT  4922  TIP3    H1 30973   0.417000   1.008000
30974         HT  4922  TIP3    H2 30974   0.417000   1.008000
30975         OT  4923  TIP3   OH2 30975  -0.834000  15.999400
30976         HT  4923  TIP3    H1 30976   0.417000   1.008000
30977         HT  4923  TIP3    H2 30977   0.417000   1.008000
30978         OT  4924  TIP3   OH2 30978  -0.834000  15.999400
30979         HT  4924  TIP3    H1 30979   0.417000   1.008000
30980         HT  4924  TIP3    H2 30980   0.417000   1.008000
30981         OT  4925  TIP3   OH2 30981  -0.834000  15.999400
30982         HT  4925  TIP3    H1 30982   0.417000   1.008000
30983         HT  4925  TIP3    H2 30983   0.417000   1.008000
30984         OT  4926  TIP3   OH2 30984  -0.834000  15.999400
30985         HT  4926  TIP3    H1 30985   0.417000   1.008000
30986         HT  4926  TIP3    H2 30986   0.417000   1.008000
30987         OT  4927  TIP3   OH2 30987  -0.834000  15.999400
30988         HT  4927  TIP3    H1 30988   0.417000   1.008000
30989         HT  4927  TIP3    H2 30989   0.417000   1.008000
30990         OT  4928  TIP3   OH2 30990  -0.834000  15.999400
30991         HT  4928  TIP3    H1 30991   0.417000   1.008000
30992         HT  4928  TIP3    H2 30992   0.417000   1.008000
30993         OT  4929  TIP3   OH2 30993  -0.834000  15.999400
30994         HT  4929  TIP3    H1 30994   0.417000   1.008000
30995         HT  4929  TIP3    H2 30995   0.417000   1.008000
30996         OT  4930  TIP3   OH2 30996  -0.834000  15.999400
30997         HT  4930  TIP3    H1 30997   0.417000   1.008000
30998         HT  4930  TIP3    H2 30998   0.417000   1.008000
30999         OT  4931  TIP3   OH2 30999  -0.834000  15.999400
31000         HT  4931  TIP3    H1 31000   0.417000   1.008000
31001         HT  4931  TIP3    H2 31001   0.417000   1.008000
31002         OT  4932  TIP3   OH2 31002  -0.834000  15.999400
31003         HT  4932  TIP3    H1 31003   0.417000   1.008000
31004         HT  4932  TIP3    H2 31004   0.417000   1.008000
31005         OT  4933  TIP3   OH2 31005  -0.834000  15.999400
31006         HT  4933  TIP3    H1 31006   0.417000   1.008000
31007         HT  4933  TIP3    H2 31007   0.417000   1.008000
31008         OT  4934  TIP3   OH2 31008  -0.834000  15.999400
31009         HT  4934  TIP3    H1 31009   0.417000   1.008000
31010         HT  4934  TIP3    H2 31010   0.417000   1.008000
31011         OT  4935  TIP3   OH2 31011  -0.834000  15.999400
31012         HT  4935  TIP3    H1 31012   0.417000   1.008000
31013         HT  4935  TIP3    H2 31013   0.417000   1.008000
31014         OT  4936  TIP3   OH2 31014  -0.834000  15.999400
31015         HT  4936  TIP3    H1 31015   0.417000   1.008000
31016         HT  4936  TIP3    H2 31016   0.417000   1.008000
31017         OT  4937  TIP3   OH2 31017  -0.834000  15.999400
31018         HT  4937  TIP3    H1 31018   0.417000   1.008000
31019         HT  4937  TIP3    H2 31019   0.417000   1.008000
31020         OT  4938  TIP3   OH2 31020  -0.834000  15.999400
31021         HT  4938  TIP3    H1 31021   0.417000   1.008000
31022         HT  4938  TIP3    H2 31022   0.417000   1.008000
31023         OT  4939  TIP3   OH2 31023  -0.834000  15.999400
31024         HT  4939  TIP3    H1 31024   0.417000   1.008000
31025         HT  4939  TIP3    H2 31025   0.417000   1.008000
31026         OT  4940  TIP3   OH2 31026  -0.834000  15.999400
31027         HT  4940  TIP3    H1 31027   0.417000   1.008000
31028         HT  4940  TIP3    H2 31028   0.417000   1.008000
31029         OT  4941  TIP3   OH2 31029  -0.834000  15.999400
31030         HT  4941  TIP3    H1 31030   0.417000   1.008000
31031         HT  4941  TIP3    H2 31031   0.417000   1.008000
31032         OT  4942  TIP3   OH2 31032  -0.834000  15.999400
31033         HT  4942  TIP3    H1 31033   0.417000   1.008000
31034         HT  4942  TIP3    H2 31034   0.417000   1.008000
31035         OT  4943  TIP3   OH2 31035  -0.834000  15.999400
31036         HT  4943  TIP3    H1 31036   0.417000   1.008000
31037         HT  4943  TIP3    H2 31037   0.417000   1.008000
31038         OT  4944  TIP3   OH2 31038  -0.834000  15.999400
31039         HT  4944  TIP3    H1 31039   0.417000   1.008000
31040         HT  4944  TIP3    H2 31040   0.417000   1.008000
31041         OT  4945  TIP3   OH2 31041  -0.834000  15.999400
31042         HT  4945  TIP3    H1 31042   0.417000   1.008000
31043         HT  4945  TIP3    H2 31043   0.417000   1.008000
31044         OT  4946  TIP3   OH2 31044  -0.834000  15.999400
31045         HT  4946  TIP3    H1 31045   0.417000   1.008000
31046         HT  4946  TIP3    H2 31046   0.417000   1.008000
31047         OT  4947  TIP3   OH2 31047  -0.834000  15.999400
31048         HT  4947  TIP3    H1 31048   0.417000   1.008000
31049         HT  4947  TIP3    H2 31049   0.417000   1.008000
31050         OT  4948  TIP3   OH2 31050  -0.834000  15.999400
31051         HT  4948  TIP3    H1 31051   0.417000   1.008000
31052         HT  4948  TIP3    H2 31052   0.417000   1.008000
31053         OT  4949  TIP3   OH2 31053  -0.834000  15.999400
31054         HT  4949  TIP3    H1 31054   0.417000   1.008000
31055         HT  4949  TIP3    H2 31055   0.417000   1.008000
31056         OT  4950  TIP3   OH2 31056  -0.834000  15.999400
31057         HT  4950  TIP3    H1 31057   0.417000   1.008000
31058         HT  4950  TIP3    H2 31058   0.417000   1.008000
31059         OT  4951  TIP3   OH2 31059  -0.834000  15.999400
31060         HT  4951  TIP3    H1 31060   0.417000   1.008000
31061         HT  4951  TIP3    H2 31061   0.417000   1.008000
31062         OT  4952  TIP3   OH2 31062  -0.834000  15.999400
31063         HT  4952  TIP3    H1 31063   0.417000   1.008000
31064         HT  4952  TIP3    H2 31064   0.417000   1.008000
31065         OT  4953  TIP3   OH2 31065  -0.834000  15.999400
31066         HT  4953  TIP3    H1 31066   0.417000   1.008000
31067         HT  4953  TIP3    H2 31067   0.417000   1.008000
31068         OT  4954  TIP3   OH2 31068  -0.834000  15.999400
31069         HT  4954  TIP3    H1 31069   0.417000   1.008000
31070         HT  4954  TIP3    H2 31070   0.417000   1.008000
31071         OT  4955  TIP3   OH2 31071  -0.834000  15.999400
31072         HT  4955  TIP3    H1 31072   0.417000   1.008000
31073         HT  4955  TIP3    H2 31073   0.417000   1.008000
31074         OT  4956  TIP3   OH2 31074  -0.834000  15.999400
31075         HT  4956  TIP3    H1 31075   0.417000   1.008000
31076         HT  4956  TIP3    H2 31076   0.417000   1.008000
31077         OT  4957  TIP3   OH2 31077  -0.834000  15.999400
31078         HT  4957  TIP3    H1 31078   0.417000   1.008000
31079         HT  4957  TIP3    H2 31079   0.417000   1.008000
31080         OT  4958  TIP3   OH2 31080  -0.834000  15.999400
31081         HT  4958  TIP3    H1 31081   0.417000   1.008000
31082         HT  4958  TIP3    H2 31082   0.417000   1.008000
31083         OT  4959  TIP3   OH2 31083  -0.834000  15.999400
31084         HT  4959  TIP3    H1 31084   0.417000   1.008000
31085         HT  4959  TIP3    H2 31085   0.417000   1.008000
31086         OT  4960  TIP3   OH2 31086  -0.834000  15.999400
31087         HT  4960  TIP3    H1 31087   0.417000   1.008000
31088         HT  4960  TIP3    H2 31088   0.417000   1.008000
31089         OT  4961  TIP3   OH2 31089  -0.834000  15.999400
31090         HT  4961  TIP3    H1 31090   0.417000   1.008000
31091         HT  4961  TIP3    H2 31091   0.417000   1.008000
31092         OT  4962  TIP3   OH2 31092  -0.834000  15.999400
31093         HT  4962  TIP3    H1 31093   0.417000   1.008000
31094         HT  4962  TIP3    H2 31094   0.417000   1.008000
31095         OT  4963  TIP3   OH2 31095  -0.834000  15.999400
31096         HT  4963  TIP3    H1 31096   0.417000   1.008000
31097         HT  4963  TIP3    H2 31097   0.417000   1.008000
31098         OT  4964  TIP3   OH2 31098  -0.834000  15.999400
31099         HT  4964  TIP3    H1 31099   0.417000   1.008000
31100         HT  4964  TIP3    H2 31100   0.417000   1.008000
31101         OT  4965  TIP3   OH2 31101  -0.834000  15.999400
31102         HT  4965  TIP3    H1 31102   0.417000   1.008000
31103         HT  4965  TIP3    H2 31103   0.417000   1.008000
31104         OT  4966  TIP3   OH2 31104  -0.834000  15.999400
31105         HT  4966  TIP3    H1 31105   0.417000   1.008000
31106         HT  4966  TIP3    H2 31106   0.417000   1.008000
31107         OT  4967  TIP3   OH2 31107  -0.834000  15.999400
31108         HT  4967  TIP3    H1 31108   0.417000   1.008000
31109         HT  4967  TIP3    H2 31109   0.417000   1.008000
31110         OT  4968  TIP3   OH2 31110  -0.834000  15.999400
31111         HT  4968  TIP3    H1 31111   0.417000   1.008000
31112         HT  4968  TIP3    H2 31112   0.417000   1.008000
31113         OT  4969  TIP3   OH2 31113  -0.834000  15.999400
31114         HT  4969  TIP3    H1 31114   0.417000   1.008000
31115         HT  4969  TIP3    H2 31115   0.417000   1.008000
31116         OT  4970  TIP3   OH2 31116  -0.834000  15.999400
31117         HT  4970  TIP3    H1 31117   0.417000   1.008000
31118         HT  4970  TIP3    H2 31118   0.417000   1.008000
31119         OT  4971  TIP3   OH2 31119  -0.834000  15.999400
31120         HT  4971  TIP3    H1 31120   0.417000   1.008000
31121         HT  4971  TIP3    H2 31121   0.417000   1.008000
31122         OT  4972  TIP3   OH2 31122  -0.834000  15.999400
31123         HT  4972  TIP3    H1 31123   0.417000   1.008000
31124         HT  4972  TIP3    H2 31124   0.417000   1.008000
31125         OT  4973  TIP3   OH2 31125  -0.834000  15.999400
31126         HT  4973  TIP3    H1 31126   0.417000   1.008000
31127         HT  4973  TIP3    H2 31127   0.417000   1.008000
31128         OT  4974  TIP3   OH2 31128  -0.834000  15.999400
31129         HT  4974  TIP3    H1 31129   0.417000   1.008000
31130         HT  4974  TIP3    H2 31130   0.417000   1.008000
31131         OT  4975  TIP3   OH2 31131  -0.834000  15.999400
31132         HT  4975  TIP3    H1 31132   0.417000   1.008000
31133         HT  4975  TIP3    H2 31133   0.417000   1.008000
31134         OT  4976  TIP3   OH2 31134  -0.834000  15.999400
31135         HT  4976  TIP3    H1 31135   0.417000   1.008000
31136         HT  4976  TIP3    H2 31136   0.417000   1.008000
31137         OT  4977  TIP3   OH2 31137  -0.834000  15.999400
31138         HT  4977  TIP3    H1 31138   0.417000   1.008000
31139         HT  4977  TIP3    H2 31139   0.417000   1.008000
31140         OT  4978  TIP3   OH2 31140  -0.834000  15.999400
31141         HT  4978  TIP3    H1 31141   0.417000   1.008000
31142         HT  4978  TIP3    H2 31142   0.417000   1.008000
31143         OT  4979  TIP3   OH2 31143  -0.834000  15.999400
31144         HT  4979  TIP3    H1 31144   0.417000   1.008000
31145         HT  4979  TIP3    H2 31145   0.417000   1.008000
31146         OT  4980  TIP3   OH2 31146  -0.834000  15.999400
31147         HT  4980  TIP3    H1 31147   0.417000   1.008000
31148         HT  4980  TIP3    H2 31148   0.417000   1.008000
31149         OT  4981  TIP3   OH2 31149  -0.834000  15.999400
31150         HT  4981  TIP3    H1 31150   0.417000   1.008000
31151         HT  4981  TIP3    H2 31151   0.417000   1.008000
31152         OT  4982  TIP3   OH2 31152  -0.834000  15.999400
31153         HT  4982  TIP3    H1 31153   0.417000   1.008000
31154         HT  4982  TIP3    H2 31154   0.417000   1.008000
31155         OT  4983  TIP3   OH2 31155  -0.834000  15.999400
31156         HT  4983  TIP3    H1 31156   0.417000   1.008000
31157         HT  4983  TIP3    H2 31157   0.417000   1.008000
31158         OT  4984  TIP3   OH2 31158  -0.834000  15.999400
31159         HT  4984  TIP3    H1 31159   0.417000   1.008000
31160         HT  4984  TIP3    H2 31160   0.417000   1.008000
31161         OT  4985  TIP3   OH2 31161  -0.834000  15.999400
31162         HT  4985  TIP3    H1 31162   0.417000   1.008000
31163         HT  4985  TIP3    H2 31163   0.417000   1.008000
31164         OT  4986  TIP3   OH2 31164  -0.834000  15.999400
31165         HT  4986  TIP3    H1 31165   0.417000   1.008000
31166         HT  4986  TIP3    H2 31166   0.417000   1.008000
31167         OT  4987  TIP3   OH2 31167  -0.834000  15.999400
31168         HT  4987  TIP3    H1 31168   0.417000   1.008000
31169         HT  4987  TIP3    H2 31169   0.417000   1.008000
31170         OT  4988  TIP3   OH2 31170  -0.834000  15.999400
31171         HT  4988  TIP3    H1 31171   0.417000   1.008000
31172         HT  4988  TIP3    H2 31172   0.417000   1.008000
31173         OT  4989  TIP3   OH2 31173  -0.834000  15.999400
31174         HT  4989  TIP3    H1 31174   0.417000   1.008000
31175         HT  4989  TIP3    H2 31175   0.417000   1.008000
31176         OT  4990  TIP3   OH2 31176  -0.834000  15.999400
31177         HT  4990  TIP3    H1 31177   0.417000   1.008000
31178         HT  4990  TIP3    H2 31178   0.417000   1.008000
31179         OT  4991  TIP3   OH2 31179  -0.834000  15.999400
31180         HT  4991  TIP3    H1 31180   0.417000   1.008000
31181         HT  4991  TIP3    H2 31181   0.417000   1.008000
31182         OT  4992  TIP3   OH2 31182  -0.834000  15.999400
31183         HT  4992  TIP3    H1 31183   0.417000   1.008000
31184         HT  4992  TIP3    H2 31184   0.417000   1.008000
31185         OT  4993  TIP3   OH2 31185  -0.834000  15.999400
31186         HT  4993  TIP3    H1 31186   0.417000   1.008000
31187         HT  4993  TIP3    H2 31187   0.417000   1.008000
31188         OT  4994  TIP3   OH2 31188  -0.834000  15.999400
31189         HT  4994  TIP3    H1 31189   0.417000   1.008000
31190         HT  4994  TIP3    H2 31190   0.417000   1.008000
31191         OT  4995  TIP3   OH2 31191  -0.834000  15.999400
31192         HT  4995  TIP3    H1 31192   0.417000   1.008000
31193         HT  4995  TIP3    H2 31193   0.417000   1.008000
31194         OT  4996  TIP3   OH2 31194  -0.834000  15.999400
31195         HT  4996  TIP3    H1 31195   0.417000   1.008000
31196         HT  4996  TIP3    H2 31196   0.417000   1.008000
31197         OT  4997  TIP3   OH2 31197  -0.834000  15.999400
31198         HT  4997  TIP3    H1 31198   0.417000   1.008000
31199         HT  4997  TIP3    H2 31199   0.417000   1.008000
31200         OT  4998  TIP3   OH2 31200  -0.834000  15.999400
31201         HT  4998  TIP3    H1 31201   0.417000   1.008000
31202         HT  4998  TIP3    H2 31202   0.417000   1.008000
31203         OT  4999  TIP3   OH2 31203  -0.834000  15.999400
31204         HT  4999  TIP3    H1 31204   0.417000   1.008000
31205         HT  4999  TIP3    H2 31205   0.417000   1.008000
31206         OT  5000  TIP3   OH2 31206  -0.834000  15.999400
31207         HT  5000  TIP3    H1 31207   0.417000   1.008000
31208         HT  5000  TIP3    H2 31208   0.417000   1.008000
31209         OT  5001  TIP3   OH2 31209  -0.834000  15.999400
31210         HT  5001  TIP3    H1 31210   0.417000   1.008000
31211         HT  5001  TIP3    H2 31211   0.417000   1.008000
31212         OT  5002  TIP3   OH2 31212  -0.834000  15.999400
31213         HT  5002  TIP3    H1 31213   0.417000   1.008000
31214         HT  5002  TIP3    H2 31214   0.417000   1.008000
31215         OT  5003  TIP3   OH2 31215  -0.834000  15.999400
31216         HT  5003  TIP3    H1 31216   0.417000   1.008000
31217         HT  5003  TIP3    H2 31217   0.417000   1.008000
31218         OT  5004  TIP3   OH2 31218  -0.834000  15.999400
31219         HT  5004  TIP3    H1 31219   0.417000   1.008000
31220         HT  5004  TIP3    H2 31220   0.417000   1.008000
31221         OT  5005  TIP3   OH2 31221  -0.834000  15.999400
31222         HT  5005  TIP3    H1 31222   0.417000   1.008000
31223         HT  5005  TIP3    H2 31223   0.417000   1.008000
31224         OT  5006  TIP3   OH2 31224  -0.834000  15.999400
31225         HT  5006  TIP3    H1 31225   0.417000   1.008000
31226         HT  5006  TIP3    H2 31226   0.417000   1.008000
31227         OT  5007  TIP3   OH2 31227  -0.834000  15.999400
31228         HT  5007  TIP3    H1 31228   0.417000   1.008000
31229         HT  5007  TIP3    H2 31229   0.417000   1.008000
31230         OT  5008  TIP3   OH2 31230  -0.834000  15.999400
31231         HT  5008  TIP3    H1 31231   0.417000   1.008000
31232         HT  5008  TIP3    H2 31232   0.417000   1.008000
31233         OT  5009  TIP3   OH2 31233  -0.834000  15.999400
31234         HT  5009  TIP3    H1 31234   0.417000   1.008000
31235         HT  5009  TIP3    H2 31235   0.417000   1.008000
31236         OT  5010  TIP3   OH2 31236  -0.834000  15.999400
31237         HT  5010  TIP3    H1 31237   0.417000   1.008000
31238         HT  5010  TIP3    H2 31238   0.417000   1.008000
31239         OT  5011  TIP3   OH2 31239  -0.834000  15.999400
31240         HT  5011  TIP3    H1 31240   0.417000   1.008000
31241         HT  5011  TIP3    H2 31241   0.417000   1.008000
31242         OT  5012  TIP3   OH2 31242  -0.834000  15.999400
31243         HT  5012  TIP3    H1 31243   0.417000   1.008000
31244         HT  5012  TIP3    H2 31244   0.417000   1.008000
31245         OT  5013  TIP3   OH2 31245  -0.834000  15.999400
31246         HT  5013  TIP3    H1 31246   0.417000   1.008000
31247         HT  5013  TIP3    H2 31247   0.417000   1.008000
31248         OT  5014  TIP3   OH2 31248  -0.834000  15.999400
31249         HT  5014  TIP3    H1 31249   0.417000   1.008000
31250         HT  5014  TIP3    H2 31250   0.417000   1.008000
31251         OT  5015  TIP3   OH2 31251  -0.834000  15.999400
31252         HT  5015  TIP3    H1 31252   0.417000   1.008000
31253         HT  5015  TIP3    H2 31253   0.417000   1.008000
31254         OT  5016  TIP3   OH2 31254  -0.834000  15.999400
31255         HT  5016  TIP3    H1 31255   0.417000   1.008000
31256         HT  5016  TIP3    H2 31256   0.417000   1.008000
31257         OT  5017  TIP3   OH2 31257  -0.834000  15.999400
31258         HT  5017  TIP3    H1 31258   0.417000   1.008000
31259         HT  5017  TIP3    H2 31259   0.417000   1.008000
31260         OT  5018  TIP3   OH2 31260  -0.834000  15.999400
31261         HT  5018  TIP3    H1 31261   0.417000   1.008000
31262         HT  5018  TIP3    H2 31262   0.417000   1.008000
31263         OT  5019  TIP3   OH2 31263  -0.834000  15.999400
31264         HT  5019  TIP3    H1 31264   0.417000   1.008000
31265         HT  5019  TIP3    H2 31265   0.417000   1.008000
31266         OT  5020  TIP3   OH2 31266  -0.834000  15.999400
31267         HT  5020  TIP3    H1 31267   0.417000   1.008000
31268         HT  5020  TIP3    H2 31268   0.417000   1.008000
31269         OT  5021  TIP3   OH2 31269  -0.834000  15.999400
31270         HT  5021  TIP3    H1 31270   0.417000   1.008000
31271         HT  5021  TIP3    H2 31271   0.417000   1.008000
31272         OT  5022  TIP3   OH2 31272  -0.834000  15.999400
31273         HT  5022  TIP3    H1 31273   0.417000   1.008000
31274         HT  5022  TIP3    H2 31274   0.417000   1.008000
31275         OT  5023  TIP3   OH2 31275  -0.834000  15.999400
31276         HT  5023  TIP3    H1 31276   0.417000   1.008000
31277         HT  5023  TIP3    H2 31277   0.417000   1.008000
31278         OT  5024  TIP3   OH2 31278  -0.834000  15.999400
31279         HT  5024  TIP3    H1 31279   0.417000   1.008000
31280         HT  5024  TIP3    H2 31280   0.417000   1.008000
31281         OT  5025  TIP3   OH2 31281  -0.834000  15.999400
31282         HT  5025  TIP3    H1 31282   0.417000   1.008000
31283         HT  5025  TIP3    H2 31283   0.417000   1.008000
31284         OT  5026  TIP3   OH2 31284  -0.834000  15.999400
31285         HT  5026  TIP3    H1 31285   0.417000   1.008000
31286         HT  5026  TIP3    H2 31286   0.417000   1.008000
31287         OT  5027  TIP3   OH2 31287  -0.834000  15.999400
31288         HT  5027  TIP3    H1 31288   0.417000   1.008000
31289         HT  5027  TIP3    H2 31289   0.417000   1.008000
31290         OT  5028  TIP3   OH2 31290  -0.834000  15.999400
31291         HT  5028  TIP3    H1 31291   0.417000   1.008000
31292         HT  5028  TIP3    H2 31292   0.417000   1.008000
31293         OT  5029  TIP3   OH2 31293  -0.834000  15.999400
31294         HT  5029  TIP3    H1 31294   0.417000   1.008000
31295         HT  5029  TIP3    H2 31295   0.417000   1.008000
31296         OT  5030  TIP3   OH2 31296  -0.834000  15.999400
31297         HT  5030  TIP3    H1 31297   0.417000   1.008000
31298         HT  5030  TIP3    H2 31298   0.417000   1.008000
31299         OT  5031  TIP3   OH2 31299  -0.834000  15.999400
31300         HT  5031  TIP3    H1 31300   0.417000   1.008000
31301         HT  5031  TIP3    H2 31301   0.417000   1.008000
31302         OT  5032  TIP3   OH2 31302  -0.834000  15.999400
31303         HT  5032  TIP3    H1 31303   0.417000   1.008000
31304         HT  5032  TIP3    H2 31304   0.417000   1.008000
31305         OT  5033  TIP3   OH2 31305  -0.834000  15.999400
31306         HT  5033  TIP3    H1 31306   0.417000   1.008000
31307         HT  5033  TIP3    H2 31307   0.417000   1.008000
31308         OT  5034  TIP3   OH2 31308  -0.834000  15.999400
31309         HT  5034  TIP3    H1 31309   0.417000   1.008000
31310         HT  5034  TIP3    H2 31310   0.417000   1.008000
31311         OT  5035  TIP3   OH2 31311  -0.834000  15.999400
31312         HT  5035  TIP3    H1 31312   0.417000   1.008000
31313         HT  5035  TIP3    H2 31313   0.417000   1.008000
31314         OT  5036  TIP3   OH2 31314  -0.834000  15.999400
31315         HT  5036  TIP3    H1 31315   0.417000   1.008000
31316         HT  5036  TIP3    H2 31316   0.417000   1.008000
31317         OT  5037  TIP3   OH2 31317  -0.834000  15.999400
31318         HT  5037  TIP3    H1 31318   0.417000   1.008000
31319         HT  5037  TIP3    H2 31319   0.417000   1.008000
31320         OT  5038  TIP3   OH2 31320  -0.834000  15.999400
31321         HT  5038  TIP3    H1 31321   0.417000   1.008000
31322         HT  5038  TIP3    H2 31322   0.417000   1.008000
31323         OT  5039  TIP3   OH2 31323  -0.834000  15.999400
31324         HT  5039  TIP3    H1 31324   0.417000   1.008000
31325         HT  5039  TIP3    H2 31325   0.417000   1.008000
31326         OT  5040  TIP3   OH2 31326  -0.834000  15.999400
31327         HT  5040  TIP3    H1 31327   0.417000   1.008000
31328         HT  5040  TIP3    H2 31328   0.417000   1.008000
31329         OT  5041  TIP3   OH2 31329  -0.834000  15.999400
31330         HT  5041  TIP3    H1 31330   0.417000   1.008000
31331         HT  5041  TIP3    H2 31331   0.417000   1.008000
31332         OT  5042  TIP3   OH2 31332  -0.834000  15.999400
31333         HT  5042  TIP3    H1 31333   0.417000   1.008000
31334         HT  5042  TIP3    H2 31334   0.417000   1.008000
31335         OT  5043  TIP3   OH2 31335  -0.834000  15.999400
31336         HT  5043  TIP3    H1 31336   0.417000   1.008000
31337         HT  5043  TIP3    H2 31337   0.417000   1.008000
31338         OT  5044  TIP3   OH2 31338  -0.834000  15.999400
31339         HT  5044  TIP3    H1 31339   0.417000   1.008000
31340         HT  5044  TIP3    H2 31340   0.417000   1.008000
31341         OT  5045  TIP3   OH2 31341  -0.834000  15.999400
31342         HT  5045  TIP3    H1 31342   0.417000   1.008000
31343         HT  5045  TIP3    H2 31343   0.417000   1.008000
31344         OT  5046  TIP3   OH2 31344  -0.834000  15.999400
31345         HT  5046  TIP3    H1 31345   0.417000   1.008000
31346         HT  5046  TIP3    H2 31346   0.417000   1.008000
31347         OT  5047  TIP3   OH2 31347  -0.834000  15.999400
31348         HT  5047  TIP3    H1 31348   0.417000   1.008000
31349         HT  5047  TIP3    H2 31349   0.417000   1.008000
31350         OT  5048  TIP3   OH2 31350  -0.834000  15.999400
31351         HT  5048  TIP3    H1 31351   0.417000   1.008000
31352         HT  5048  TIP3    H2 31352   0.417000   1.008000
31353         OT  5049  TIP3   OH2 31353  -0.834000  15.999400
31354         HT  5049  TIP3    H1 31354   0.417000   1.008000
31355         HT  5049  TIP3    H2 31355   0.417000   1.008000
31356         OT  5050  TIP3   OH2 31356  -0.834000  15.999400
31357         HT  5050  TIP3    H1 31357   0.417000   1.008000
31358         HT  5050  TIP3    H2 31358   0.417000   1.008000
31359         OT  5051  TIP3   OH2 31359  -0.834000  15.999400
31360         HT  5051  TIP3    H1 31360   0.417000   1.008000
31361         HT  5051  TIP3    H2 31361   0.417000   1.008000
31362         OT  5052  TIP3   OH2 31362  -0.834000  15.999400
31363         HT  5052  TIP3    H1 31363   0.417000   1.008000
31364         HT  5052  TIP3    H2 31364   0.417000   1.008000
31365         OT  5053  TIP3   OH2 31365  -0.834000  15.999400
31366         HT  5053  TIP3    H1 31366   0.417000   1.008000
31367         HT  5053  TIP3    H2 31367   0.417000   1.008000
31368         OT  5054  TIP3   OH2 31368  -0.834000  15.999400
31369         HT  5054  TIP3    H1 31369   0.417000   1.008000
31370         HT  5054  TIP3    H2 31370   0.417000   1.008000
31371         OT  5055  TIP3   OH2 31371  -0.834000  15.999400
31372         HT  5055  TIP3    H1 31372   0.417000   1.008000
31373         HT  5055  TIP3    H2 31373   0.417000   1.008000
31374         OT  5056  TIP3   OH2 31374  -0.834000  15.999400
31375         HT  5056  TIP3    H1 31375   0.417000   1.008000
31376         HT  5056  TIP3    H2 31376   0.417000   1.008000
31377         OT  5057  TIP3   OH2 31377  -0.834000  15.999400
31378         HT  5057  TIP3    H1 31378   0.417000   1.008000
31379         HT  5057  TIP3    H2 31379   0.417000   1.008000
31380         OT  5058  TIP3   OH2 31380  -0.834000  15.999400
31381         HT  5058  TIP3    H1 31381   0.417000   1.008000
31382         HT  5058  TIP3    H2 31382   0.417000   1.008000
31383         OT  5059  TIP3   OH2 31383  -0.834000  15.999400
31384         HT  5059  TIP3    H1 31384   0.417000   1.008000
31385         HT  5059  TIP3    H2 31385   0.417000   1.008000
31386         OT  5060  TIP3   OH2 31386  -0.834000  15.999400
31387         HT  5060  TIP3    H1 31387   0.417000   1.008000
31388         HT  5060  TIP3    H2 31388   0.417000   1.008000
31389         OT  5061  TIP3   OH2 31389  -0.834000  15.999400
31390         HT  5061  TIP3    H1 31390   0.417000   1.008000
31391         HT  5061  TIP3    H2 31391   0.417000   1.008000
31392         OT  5062  TIP3   OH2 31392  -0.834000  15.999400
31393         HT  5062  TIP3    H1 31393   0.417000   1.008000
31394         HT  5062  TIP3    H2 31394   0.417000   1.008000
31395         OT  5063  TIP3   OH2 31395  -0.834000  15.999400
31396         HT  5063  TIP3    H1 31396   0.417000   1.008000
31397         HT  5063  TIP3    H2 31397   0.417000   1.008000
31398         OT  5064  TIP3   OH2 31398  -0.834000  15.999400
31399         HT  5064  TIP3    H1 31399   0.417000   1.008000
31400         HT  5064  TIP3    H2 31400   0.417000   1.008000
31401         OT  5065  TIP3   OH2 31401  -0.834000  15.999400
31402         HT  5065  TIP3    H1 31402   0.417000   1.008000
31403         HT  5065  TIP3    H2 31403   0.417000   1.008000
31404         OT  5066  TIP3   OH2 31404  -0.834000  15.999400
31405         HT  5066  TIP3    H1 31405   0.417000   1.008000
31406         HT  5066  TIP3    H2 31406   0.417000   1.008000
31407         OT  5067  TIP3   OH2 31407  -0.834000  15.999400
31408         HT  5067  TIP3    H1 31408   0.417000   1.008000
31409         HT  5067  TIP3    H2 31409   0.417000   1.008000
31410         OT  5068  TIP3   OH2 31410  -0.834000  15.999400
31411         HT  5068  TIP3    H1 31411   0.417000   1.008000
31412         HT  5068  TIP3    H2 31412   0.417000   1.008000
31413         OT  5069  TIP3   OH2 31413  -0.834000  15.999400
31414         HT  5069  TIP3    H1 31414   0.417000   1.008000
31415         HT  5069  TIP3    H2 31415   0.417000   1.008000
31416         OT  5070  TIP3   OH2 31416  -0.834000  15.999400
31417         HT  5070  TIP3    H1 31417   0.417000   1.008000
31418         HT  5070  TIP3    H2 31418   0.417000   1.008000
31419         OT  5071  TIP3   OH2 31419  -0.834000  15.999400
31420         HT  5071  TIP3    H1 31420   0.417000   1.008000
31421         HT  5071  TIP3    H2 31421   0.417000   1.008000
31422         OT  5072  TIP3   OH2 31422  -0.834000  15.999400
31423         HT  5072  TIP3    H1 31423   0.417000   1.008000
31424         HT  5072  TIP3    H2 31424   0.417000   1.008000
31425         OT  5073  TIP3   OH2 31425  -0.834000  15.999400
31426         HT  5073  TIP3    H1 31426   0.417000   1.008000
31427         HT  5073  TIP3    H2 31427   0.417000   1.008000
31428         OT  5074  TIP3   OH2 31428  -0.834000  15.999400
31429         HT  5074  TIP3    H1 31429   0.417000   1.008000
31430         HT  5074  TIP3    H2 31430   0.417000   1.008000
31431         OT  5075  TIP3   OH2 31431  -0.834000  15.999400
31432         HT  5075  TIP3    H1 31432   0.417000   1.008000
31433         HT  5075  TIP3    H2 31433   0.417000   1.008000
31434         OT  5076  TIP3   OH2 31434  -0.834000  15.999400
31435         HT  5076  TIP3    H1 31435   0.417000   1.008000
31436         HT  5076  TIP3    H2 31436   0.417000   1.008000
31437         OT  5077  TIP3   OH2 31437  -0.834000  15.999400
31438         HT  5077  TIP3    H1 31438   0.417000   1.008000
31439         HT  5077  TIP3    H2 31439   0.417000   1.008000
31440         OT  5078  TIP3   OH2 31440  -0.834000  15.999400
31441         HT  5078  TIP3    H1 31441   0.417000   1.008000
31442         HT  5078  TIP3    H2 31442   0.417000   1.008000
31443         OT  5079  TIP3   OH2 31443  -0.834000  15.999400
31444         HT  5079  TIP3    H1 31444   0.417000   1.008000
31445         HT  5079  TIP3    H2 31445   0.417000   1.008000
31446         OT  5080  TIP3   OH2 31446  -0.834000  15.999400
31447         HT  5080  TIP3    H1 31447   0.417000   1.008000
31448         HT  5080  TIP3    H2 31448   0.417000   1.008000
31449         OT  5081  TIP3   OH2 31449  -0.834000  15.999400
31450         HT  5081  TIP3    H1 31450   0.417000   1.008000
31451         HT  5081  TIP3    H2 31451   0.417000   1.008000
31452         OT  5082  TIP3   OH2 31452  -0.834000  15.999400
31453         HT  5082  TIP3    H1 31453   0.417000   1.008000
31454         HT  5082  TIP3    H2 31454   0.417000   1.008000
31455         OT  5083  TIP3   OH2 31455  -0.834000  15.999400
31456         HT  5083  TIP3    H1 31456   0.417000   1.008000
31457         HT  5083  TIP3    H2 31457   0.417000   1.008000
31458         OT  5084  TIP3   OH2 31458  -0.834000  15.999400
31459         HT  5084  TIP3    H1 31459   0.417000   1.008000
31460         HT  5084  TIP3    H2 31460   0.417000   1.008000
31461         OT  5085  TIP3   OH2 31461  -0.834000  15.999400
31462         HT  5085  TIP3    H1 31462   0.417000   1.008000
31463         HT  5085  TIP3    H2 31463   0.417000   1.008000
31464         OT  5086  TIP3   OH2 31464  -0.834000  15.999400
31465         HT  5086  TIP3    H1 31465   0.417000   1.008000
31466         HT  5086  TIP3    H2 31466   0.417000   1.008000
31467         OT  5087  TIP3   OH2 31467  -0.834000  15.999400
31468         HT  5087  TIP3    H1 31468   0.417000   1.008000
31469         HT  5087  TIP3    H2 31469   0.417000   1.008000
31470         OT  5088  TIP3   OH2 31470  -0.834000  15.999400
31471         HT  5088  TIP3    H1 31471   0.417000   1.008000
31472         HT  5088  TIP3    H2 31472   0.417000   1.008000
31473         OT  5089  TIP3   OH2 31473  -0.834000  15.999400
31474         HT  5089  TIP3    H1 31474   0.417000   1.008000
31475         HT  5089  TIP3    H2 31475   0.417000   1.008000
31476         OT  5090  TIP3   OH2 31476  -0.834000  15.999400
31477         HT  5090  TIP3    H1 31477   0.417000   1.008000
31478         HT  5090  TIP3    H2 31478   0.417000   1.008000
31479         OT  5091  TIP3   OH2 31479  -0.834000  15.999400
31480         HT  5091  TIP3    H1 31480   0.417000   1.008000
31481         HT  5091  TIP3    H2 31481   0.417000   1.008000
31482         OT  5092  TIP3   OH2 31482  -0.834000  15.999400
31483         HT  5092  TIP3    H1 31483   0.417000   1.008000
31484         HT  5092  TIP3    H2 31484   0.417000   1.008000
31485         OT  5093  TIP3   OH2 31485  -0.834000  15.999400
31486         HT  5093  TIP3    H1 31486   0.417000   1.008000
31487         HT  5093  TIP3    H2 31487   0.417000   1.008000
31488         OT  5094  TIP3   OH2 31488  -0.834000  15.999400
31489         HT  5094  TIP3    H1 31489   0.417000   1.008000
31490         HT  5094  TIP3    H2 31490   0.417000   1.008000
31491         OT  5095  TIP3   OH2 31491  -0.834000  15.999400
31492         HT  5095  TIP3    H1 31492   0.417000   1.008000
31493         HT  5095  TIP3    H2 31493   0.417000   1.008000
31494         OT  5096  TIP3   OH2 31494  -0.834000  15.999400
31495         HT  5096  TIP3    H1 31495   0.417000   1.008000
31496         HT  5096  TIP3    H2 31496   0.417000   1.008000
31497         OT  5097  TIP3   OH2 31497  -0.834000  15.999400
31498         HT  5097  TIP3    H1 31498   0.417000   1.008000
31499         HT  5097  TIP3    H2 31499   0.417000   1.008000
31500         OT  5098  TIP3   OH2 31500  -0.834000  15.999400
31501         HT  5098  TIP3    H1 31501   0.417000   1.008000
31502         HT  5098  TIP3    H2 31502   0.417000   1.008000
31503         OT  5099  TIP3   OH2 31503  -0.834000  15.999400
31504         HT  5099  TIP3    H1 31504   0.417000   1.008000
31505         HT  5099  TIP3    H2 31505   0.417000   1.008000
31506         OT  5100  TIP3   OH2 31506  -0.834000  15.999400
31507         HT  5100  TIP3    H1 31507   0.417000   1.008000
31508         HT  5100  TIP3    H2 31508   0.417000   1.008000
31509         OT  5101  TIP3   OH2 31509  -0.834000  15.999400
31510         HT  5101  TIP3    H1 31510   0.417000   1.008000
31511         HT  5101  TIP3    H2 31511   0.417000   1.008000
31512         OT  5102  TIP3   OH2 31512  -0.834000  15.999400
31513         HT  5102  TIP3    H1 31513   0.417000   1.008000
31514         HT  5102  TIP3    H2 31514   0.417000   1.008000
31515         OT  5103  TIP3   OH2 31515  -0.834000  15.999400
31516         HT  5103  TIP3    H1 31516   0.417000   1.008000
31517         HT  5103  TIP3    H2 31517   0.417000   1.008000
31518         OT  5104  TIP3   OH2 31518  -0.834000  15.999400
31519         HT  5104  TIP3    H1 31519   0.417000   1.008000
31520         HT  5104  TIP3    H2 31520   0.417000   1.008000
31521         OT  5105  TIP3   OH2 31521  -0.834000  15.999400
31522         HT  5105  TIP3    H1 31522   0.417000   1.008000
31523         HT  5105  TIP3    H2 31523   0.417000   1.008000
31524         OT  5106  TIP3   OH2 31524  -0.834000  15.999400
31525         HT  5106  TIP3    H1 31525   0.417000   1.008000
31526         HT  5106  TIP3    H2 31526   0.417000   1.008000
31527         OT  5107  TIP3   OH2 31527  -0.834000  15.999400
31528         HT  5107  TIP3    H1 31528   0.417000   1.008000
31529         HT  5107  TIP3    H2 31529   0.417000   1.008000
31530         OT  5108  TIP3   OH2 31530  -0.834000  15.999400
31531         HT  5108  TIP3    H1 31531   0.417000   1.008000
31532         HT  5108  TIP3    H2 31532   0.417000   1.008000
31533         OT  5109  TIP3   OH2 31533  -0.834000  15.999400
31534         HT  5109  TIP3    H1 31534   0.417000   1.008000
31535         HT  5109  TIP3    H2 31535   0.417000   1.008000
31536         OT  5110  TIP3   OH2 31536  -0.834000  15.999400
31537         HT  5110  TIP3    H1 31537   0.417000   1.008000
31538         HT  5110  TIP3    H2 31538   0.417000   1.008000
31539         OT  5111  TIP3   OH2 31539  -0.834000  15.999400
31540         HT  5111  TIP3    H1 31540   0.417000   1.008000
31541         HT  5111  TIP3    H2 31541   0.417000   1.008000
31542         OT  5112  TIP3   OH2 31542  -0.834000  15.999400
31543         HT  5112  TIP3    H1 31543   0.417000   1.008000
31544         HT  5112  TIP3    H2 31544   0.417000   1.008000
31545         OT  5113  TIP3   OH2 31545  -0.834000  15.999400
31546         HT  5113  TIP3    H1 31546   0.417000   1.008000
31547         HT  5113  TIP3    H2 31547   0.417000   1.008000
31548         OT  5114  TIP3   OH2 31548  -0.834000  15.999400
31549         HT  5114  TIP3    H1 31549   0.417000   1.008000
31550         HT  5114  TIP3    H2 31550   0.417000   1.008000
31551         OT  5115  TIP3   OH2 31551  -0.834000  15.999400
31552         HT  5115  TIP3    H1 31552   0.417000   1.008000
31553         HT  5115  TIP3    H2 31553   0.417000   1.008000
31554         OT  5116  TIP3   OH2 31554  -0.834000  15.999400
31555         HT  5116  TIP3    H1 31555   0.417000   1.008000
31556         HT  5116  TIP3    H2 31556   0.417000   1.008000
31557         OT  5117  TIP3   OH2 31557  -0.834000  15.999400
31558         HT  5117  TIP3    H1 31558   0.417000   1.008000
31559         HT  5117  TIP3    H2 31559   0.417000   1.008000
31560         OT  5118  TIP3   OH2 31560  -0.834000  15.999400
31561         HT  5118  TIP3    H1 31561   0.417000   1.008000
31562         HT  5118  TIP3    H2 31562   0.417000   1.008000
31563         OT  5119  TIP3   OH2 31563  -0.834000  15.999400
31564         HT  5119  TIP3    H1 31564   0.417000   1.008000
31565         HT  5119  TIP3    H2 31565   0.417000   1.008000
31566         OT  5120  TIP3   OH2 31566  -0.834000  15.999400
31567         HT  5120  TIP3    H1 31567   0.417000   1.008000
31568         HT  5120  TIP3    H2 31568   0.417000   1.008000
31569         OT  5121  TIP3   OH2 31569  -0.834000  15.999400
31570         HT  5121  TIP3    H1 31570   0.417000   1.008000
31571         HT  5121  TIP3    H2 31571   0.417000   1.008000
31572         OT  5122  TIP3   OH2 31572  -0.834000  15.999400
31573         HT  5122  TIP3    H1 31573   0.417000   1.008000
31574         HT  5122  TIP3    H2 31574   0.417000   1.008000
31575         OT  5123  TIP3   OH2 31575  -0.834000  15.999400
31576         HT  5123  TIP3    H1 31576   0.417000   1.008000
31577         HT  5123  TIP3    H2 31577   0.417000   1.008000
31578         OT  5124  TIP3   OH2 31578  -0.834000  15.999400
31579         HT  5124  TIP3    H1 31579   0.417000   1.008000
31580         HT  5124  TIP3    H2 31580   0.417000   1.008000
31581         OT  5125  TIP3   OH2 31581  -0.834000  15.999400
31582         HT  5125  TIP3    H1 31582   0.417000   1.008000
31583         HT  5125  TIP3    H2 31583   0.417000   1.008000
31584         OT  5126  TIP3   OH2 31584  -0.834000  15.999400
31585         HT  5126  TIP3    H1 31585   0.417000   1.008000
31586         HT  5126  TIP3    H2 31586   0.417000   1.008000
31587         OT  5127  TIP3   OH2 31587  -0.834000  15.999400
31588         HT  5127  TIP3    H1 31588   0.417000   1.008000
31589         HT  5127  TIP3    H2 31589   0.417000   1.008000
31590         OT  5128  TIP3   OH2 31590  -0.834000  15.999400
31591         HT  5128  TIP3    H1 31591   0.417000   1.008000
31592         HT  5128  TIP3    H2 31592   0.417000   1.008000
31593         OT  5129  TIP3   OH2 31593  -0.834000  15.999400
31594         HT  5129  TIP3    H1 31594   0.417000   1.008000
31595         HT  5129  TIP3    H2 31595   0.417000   1.008000
31596         OT  5130  TIP3   OH2 31596  -0.834000  15.999400
31597         HT  5130  TIP3    H1 31597   0.417000   1.008000
31598         HT  5130  TIP3    H2 31598   0.417000   1.008000
31599         OT  5131  TIP3   OH2 31599  -0.834000  15.999400
31600         HT  5131  TIP3    H1 31600   0.417000   1.008000
31601         HT  5131  TIP3    H2 31601   0.417000   1.008000
31602         OT  5132  TIP3   OH2 31602  -0.834000  15.999400
31603         HT  5132  TIP3    H1 31603   0.417000   1.008000
31604         HT  5132  TIP3    H2 31604   0.417000   1.008000
31605         OT  5133  TIP3   OH2 31605  -0.834000  15.999400
31606         HT  5133  TIP3    H1 31606   0.417000   1.008000
31607         HT  5133  TIP3    H2 31607   0.417000   1.008000
31608         OT  5134  TIP3   OH2 31608  -0.834000  15.999400
31609         HT  5134  TIP3    H1 31609   0.417000   1.008000
31610         HT  5134  TIP3    H2 31610   0.417000   1.008000
31611         OT  5135  TIP3   OH2 31611  -0.834000  15.999400
31612         HT  5135  TIP3    H1 31612   0.417000   1.008000
31613         HT  5135  TIP3    H2 31613   0.417000   1.008000
31614         OT  5136  TIP3   OH2 31614  -0.834000  15.999400
31615         HT  5136  TIP3    H1 31615   0.417000   1.008000
31616         HT  5136  TIP3    H2 31616   0.417000   1.008000
31617         OT  5137  TIP3   OH2 31617  -0.834000  15.999400
31618         HT  5137  TIP3    H1 31618   0.417000   1.008000
31619         HT  5137  TIP3    H2 31619   0.417000   1.008000
31620         OT  5138  TIP3   OH2 31620  -0.834000  15.999400
31621         HT  5138  TIP3    H1 31621   0.417000   1.008000
31622         HT  5138  TIP3    H2 31622   0.417000   1.008000
31623         OT  5139  TIP3   OH2 31623  -0.834000  15.999400
31624         HT  5139  TIP3    H1 31624   0.417000   1.008000
31625         HT  5139  TIP3    H2 31625   0.417000   1.008000
31626         OT  5140  TIP3   OH2 31626  -0.834000  15.999400
31627         HT  5140  TIP3    H1 31627   0.417000   1.008000
31628         HT  5140  TIP3    H2 31628   0.417000   1.008000
31629         OT  5141  TIP3   OH2 31629  -0.834000  15.999400
31630         HT  5141  TIP3    H1 31630   0.417000   1.008000
31631         HT  5141  TIP3    H2 31631   0.417000   1.008000
31632         OT  5142  TIP3   OH2 31632  -0.834000  15.999400
31633         HT  5142  TIP3    H1 31633   0.417000   1.008000
31634         HT  5142  TIP3    H2 31634   0.417000   1.008000
31635         OT  5143  TIP3   OH2 31635  -0.834000  15.999400
31636         HT  5143  TIP3    H1 31636   0.417000   1.008000
31637         HT  5143  TIP3    H2 31637   0.417000   1.008000
31638         OT  5144  TIP3   OH2 31638  -0.834000  15.999400
31639         HT  5144  TIP3    H1 31639   0.417000   1.008000
31640         HT  5144  TIP3    H2 31640   0.417000   1.008000
31641         OT  5145  TIP3   OH2 31641  -0.834000  15.999400
31642         HT  5145  TIP3    H1 31642   0.417000   1.008000
31643         HT  5145  TIP3    H2 31643   0.417000   1.008000
31644         OT  5146  TIP3   OH2 31644  -0.834000  15.999400
31645         HT  5146  TIP3    H1 31645   0.417000   1.008000
31646         HT  5146  TIP3    H2 31646   0.417000   1.008000
31647         OT  5147  TIP3   OH2 31647  -0.834000  15.999400
31648         HT  5147  TIP3    H1 31648   0.417000   1.008000
31649         HT  5147  TIP3    H2 31649   0.417000   1.008000
31650         OT  5148  TIP3   OH2 31650  -0.834000  15.999400
31651         HT  5148  TIP3    H1 31651   0.417000   1.008000
31652         HT  5148  TIP3    H2 31652   0.417000   1.008000
31653         OT  5149  TIP3   OH2 31653  -0.834000  15.999400
31654         HT  5149  TIP3    H1 31654   0.417000   1.008000
31655         HT  5149  TIP3    H2 31655   0.417000   1.008000
31656         OT  5150  TIP3   OH2 31656  -0.834000  15.999400
31657         HT  5150  TIP3    H1 31657   0.417000   1.008000
31658         HT  5150  TIP3    H2 31658   0.417000   1.008000
31659         OT  5151  TIP3   OH2 31659  -0.834000  15.999400
31660         HT  5151  TIP3    H1 31660   0.417000   1.008000
31661         HT  5151  TIP3    H2 31661   0.417000   1.008000
31662         OT  5152  TIP3   OH2 31662  -0.834000  15.999400
31663         HT  5152  TIP3    H1 31663   0.417000   1.008000
31664         HT  5152  TIP3    H2 31664   0.417000   1.008000
31665         OT  5153  TIP3   OH2 31665  -0.834000  15.999400
31666         HT  5153  TIP3    H1 31666   0.417000   1.008000
31667         HT  5153  TIP3    H2 31667   0.417000   1.008000
31668         OT  5154  TIP3   OH2 31668  -0.834000  15.999400
31669         HT  5154  TIP3    H1 31669   0.417000   1.008000
31670         HT  5154  TIP3    H2 31670   0.417000   1.008000
31671         OT  5155  TIP3   OH2 31671  -0.834000  15.999400
31672         HT  5155  TIP3    H1 31672   0.417000   1.008000
31673         HT  5155  TIP3    H2 31673   0.417000   1.008000
31674         OT  5156  TIP3   OH2 31674  -0.834000  15.999400
31675         HT  5156  TIP3    H1 31675   0.417000   1.008000
31676         HT  5156  TIP3    H2 31676   0.417000   1.008000
31677         OT  5157  TIP3   OH2 31677  -0.834000  15.999400
31678         HT  5157  TIP3    H1 31678   0.417000   1.008000
31679         HT  5157  TIP3    H2 31679   0.417000   1.008000
31680         OT  5158  TIP3   OH2 31680  -0.834000  15.999400
31681         HT  5158  TIP3    H1 31681   0.417000   1.008000
31682         HT  5158  TIP3    H2 31682   0.417000   1.008000
31683         OT  5159  TIP3   OH2 31683  -0.834000  15.999400
31684         HT  5159  TIP3    H1 31684   0.417000   1.008000
31685         HT  5159  TIP3    H2 31685   0.417000   1.008000
31686         OT  5160  TIP3   OH2 31686  -0.834000  15.999400
31687         HT  5160  TIP3    H1 31687   0.417000   1.008000
31688         HT  5160  TIP3    H2 31688   0.417000   1.008000
31689         OT  5161  TIP3   OH2 31689  -0.834000  15.999400
31690         HT  5161  TIP3    H1 31690   0.417000   1.008000
31691         HT  5161  TIP3    H2 31691   0.417000   1.008000
31692         OT  5162  TIP3   OH2 31692  -0.834000  15.999400
31693         HT  5162  TIP3    H1 31693   0.417000   1.008000
31694         HT  5162  TIP3    H2 31694   0.417000   1.008000
31695         OT  5163  TIP3   OH2 31695  -0.834000  15.999400
31696         HT  5163  TIP3    H1 31696   0.417000   1.008000
31697         HT  5163  TIP3    H2 31697   0.417000   1.008000
31698         OT  5164  TIP3   OH2 31698  -0.834000  15.999400
31699         HT  5164  TIP3    H1 31699   0.417000   1.008000
31700         HT  5164  TIP3    H2 31700   0.417000   1.008000
31701         OT  5165  TIP3   OH2 31701  -0.834000  15.999400
31702         HT  5165  TIP3    H1 31702   0.417000   1.008000
31703         HT  5165  TIP3    H2 31703   0.417000   1.008000
31704         OT  5166  TIP3   OH2 31704  -0.834000  15.999400
31705         HT  5166  TIP3    H1 31705   0.417000   1.008000
31706         HT  5166  TIP3    H2 31706   0.417000   1.008000
31707         OT  5167  TIP3   OH2 31707  -0.834000  15.999400
31708         HT  5167  TIP3    H1 31708   0.417000   1.008000
31709         HT  5167  TIP3    H2 31709   0.417000   1.008000
31710         OT  5168  TIP3   OH2 31710  -0.834000  15.999400
31711         HT  5168  TIP3    H1 31711   0.417000   1.008000
31712         HT  5168  TIP3    H2 31712   0.417000   1.008000
31713         OT  5169  TIP3   OH2 31713  -0.834000  15.999400
31714         HT  5169  TIP3    H1 31714   0.417000   1.008000
31715         HT  5169  TIP3    H2 31715   0.417000   1.008000
31716         OT  5170  TIP3   OH2 31716  -0.834000  15.999400
31717         HT  5170  TIP3    H1 31717   0.417000   1.008000
31718         HT  5170  TIP3    H2 31718   0.417000   1.008000
31719         OT  5171  TIP3   OH2 31719  -0.834000  15.999400
31720         HT  5171  TIP3    H1 31720   0.417000   1.008000
31721         HT  5171  TIP3    H2 31721   0.417000   1.008000
31722         OT  5172  TIP3   OH2 31722  -0.834000  15.999400
31723         HT  5172  TIP3    H1 31723   0.417000   1.008000
31724         HT  5172  TIP3    H2 31724   0.417000   1.008000
31725         OT  5173  TIP3   OH2 31725  -0.834000  15.999400
31726         HT  5173  TIP3    H1 31726   0.417000   1.008000
31727         HT  5173  TIP3    H2 31727   0.417000   1.008000
31728         OT  5174  TIP3   OH2 31728  -0.834000  15.999400
31729         HT  5174  TIP3    H1 31729   0.417000   1.008000
31730         HT  5174  TIP3    H2 31730   0.417000   1.008000
31731         OT  5175  TIP3   OH2 31731  -0.834000  15.999400
31732         HT  5175  TIP3    H1 31732   0.417000   1.008000
31733         HT  5175  TIP3    H2 31733   0.417000   1.008000
31734         OT  5176  TIP3   OH2 31734  -0.834000  15.999400
31735         HT  5176  TIP3    H1 31735   0.417000   1.008000
31736         HT  5176  TIP3    H2 31736   0.417000   1.008000
31737         OT  5177  TIP3   OH2 31737  -0.834000  15.999400
31738         HT  5177  TIP3    H1 31738   0.417000   1.008000
31739         HT  5177  TIP3    H2 31739   0.417000   1.008000
31740         OT  5178  TIP3   OH2 31740  -0.834000  15.999400
31741         HT  5178  TIP3    H1 31741   0.417000   1.008000
31742         HT  5178  TIP3    H2 31742   0.417000   1.008000
31743         OT  5179  TIP3   OH2 31743  -0.834000  15.999400
31744         HT  5179  TIP3    H1 31744   0.417000   1.008000
31745         HT  5179  TIP3    H2 31745   0.417000   1.008000
31746         OT  5180  TIP3   OH2 31746  -0.834000  15.999400
31747         HT  5180  TIP3    H1 31747   0.417000   1.008000
31748         HT  5180  TIP3    H2 31748   0.417000   1.008000
31749         OT  5181  TIP3   OH2 31749  -0.834000  15.999400
31750         HT  5181  TIP3    H1 31750   0.417000   1.008000
31751         HT  5181  TIP3    H2 31751   0.417000   1.008000
31752         OT  5182  TIP3   OH2 31752  -0.834000  15.999400
31753         HT  5182  TIP3    H1 31753   0.417000   1.008000
31754         HT  5182  TIP3    H2 31754   0.417000   1.008000
31755         OT  5183  TIP3   OH2 31755  -0.834000  15.999400
31756         HT  5183  TIP3    H1 31756   0.417000   1.008000
31757         HT  5183  TIP3    H2 31757   0.417000   1.008000
31758         OT  5184  TIP3   OH2 31758  -0.834000  15.999400
31759         HT  5184  TIP3    H1 31759   0.417000   1.008000
31760         HT  5184  TIP3    H2 31760   0.417000   1.008000
31761         OT  5185  TIP3   OH2 31761  -0.834000  15.999400
31762         HT  5185  TIP3    H1 31762   0.417000   1.008000
31763         HT  5185  TIP3    H2 31763   0.417000   1.008000
31764         OT  5186  TIP3   OH2 31764  -0.834000  15.999400
31765         HT  5186  TIP3    H1 31765   0.417000   1.008000
31766         HT  5186  TIP3    H2 31766   0.417000   1.008000
31767         OT  5187  TIP3   OH2 31767  -0.834000  15.999400
31768         HT  5187  TIP3    H1 31768   0.417000   1.008000
31769         HT  5187  TIP3    H2 31769   0.417000   1.008000
31770         OT  5188  TIP3   OH2 31770  -0.834000  15.999400
31771         HT  5188  TIP3    H1 31771   0.417000   1.008000
31772         HT  5188  TIP3    H2 31772   0.417000   1.008000
31773         OT  5189  TIP3   OH2 31773  -0.834000  15.999400
31774         HT  5189  TIP3    H1 31774   0.417000   1.008000
31775         HT  5189  TIP3    H2 31775   0.417000   1.008000
31776         OT  5190  TIP3   OH2 31776  -0.834000  15.999400
31777         HT  5190  TIP3    H1 31777   0.417000   1.008000
31778         HT  5190  TIP3    H2 31778   0.417000   1.008000
31779         OT  5191  TIP3   OH2 31779  -0.834000  15.999400
31780         HT  5191  TIP3    H1 31780   0.417000   1.008000
31781         HT  5191  TIP3    H2 31781   0.417000   1.008000
31782         OT  5192  TIP3   OH2 31782  -0.834000  15.999400
31783         HT  5192  TIP3    H1 31783   0.417000   1.008000
31784         HT  5192  TIP3    H2 31784   0.417000   1.008000
31785         OT  5193  TIP3   OH2 31785  -0.834000  15.999400
31786         HT  5193  TIP3    H1 31786   0.417000   1.008000
31787         HT  5193  TIP3    H2 31787   0.417000   1.008000
31788         OT  5194  TIP3   OH2 31788  -0.834000  15.999400
31789         HT  5194  TIP3    H1 31789   0.417000   1.008000
31790         HT  5194  TIP3    H2 31790   0.417000   1.008000
31791         OT  5195  TIP3   OH2 31791  -0.834000  15.999400
31792         HT  5195  TIP3    H1 31792   0.417000   1.008000
31793         HT  5195  TIP3    H2 31793   0.417000   1.008000
31794         OT  5196  TIP3   OH2 31794  -0.834000  15.999400
31795         HT  5196  TIP3    H1 31795   0.417000   1.008000
31796         HT  5196  TIP3    H2 31796   0.417000   1.008000
31797         OT  5197  TIP3   OH2 31797  -0.834000  15.999400
31798         HT  5197  TIP3    H1 31798   0.417000   1.008000
31799         HT  5197  TIP3    H2 31799   0.417000   1.008000
31800         OT  5198  TIP3   OH2 31800  -0.834000  15.999400
31801         HT  5198  TIP3    H1 31801   0.417000   1.008000
31802         HT  5198  TIP3    H2 31802   0.417000   1.008000
31803         OT  5199  TIP3   OH2 31803  -0.834000  15.999400
31804         HT  5199  TIP3    H1 31804   0.417000   1.008000
31805         HT  5199  TIP3    H2 31805   0.417000   1.008000
31806         OT  5200  TIP3   OH2 31806  -0.834000  15.999400
31807         HT  5200  TIP3    H1 31807   0.417000   1.008000
31808         HT  5200  TIP3    H2 31808   0.417000   1.008000
31809         OT  5201  TIP3   OH2 31809  -0.834000  15.999400
31810         HT  5201  TIP3    H1 31810   0.417000   1.008000
31811         HT  5201  TIP3    H2 31811   0.417000   1.008000
31812         OT  5202  TIP3   OH2 31812  -0.834000  15.999400
31813         HT  5202  TIP3    H1 31813   0.417000   1.008000
31814         HT  5202  TIP3    H2 31814   0.417000   1.008000
31815         OT  5203  TIP3   OH2 31815  -0.834000  15.999400
31816         HT  5203  TIP3    H1 31816   0.417000   1.008000
31817         HT  5203  TIP3    H2 31817   0.417000   1.008000
31818         OT  5204  TIP3   OH2 31818  -0.834000  15.999400
31819         HT  5204  TIP3    H1 31819   0.417000   1.008000
31820         HT  5204  TIP3    H2 31820   0.417000   1.008000
31821         OT  5205  TIP3   OH2 31821  -0.834000  15.999400
31822         HT  5205  TIP3    H1 31822   0.417000   1.008000
31823         HT  5205  TIP3    H2 31823   0.417000   1.008000
31824         OT  5206  TIP3   OH2 31824  -0.834000  15.999400
31825         HT  5206  TIP3    H1 31825   0.417000   1.008000
31826         HT  5206  TIP3    H2 31826   0.417000   1.008000
31827         OT  5207  TIP3   OH2 31827  -0.834000  15.999400
31828         HT  5207  TIP3    H1 31828   0.417000   1.008000
31829         HT  5207  TIP3    H2 31829   0.417000   1.008000
31830         OT  5208  TIP3   OH2 31830  -0.834000  15.999400
31831         HT  5208  TIP3    H1 31831   0.417000   1.008000
31832         HT  5208  TIP3    H2 31832   0.417000   1.008000
31833         OT  5209  TIP3   OH2 31833  -0.834000  15.999400
31834         HT  5209  TIP3    H1 31834   0.417000   1.008000
31835         HT  5209  TIP3    H2 31835   0.417000   1.008000
31836         OT  5210  TIP3   OH2 31836  -0.834000  15.999400
31837         HT  5210  TIP3    H1 31837   0.417000   1.008000
31838         HT  5210  TIP3    H2 31838   0.417000   1.008000
31839         OT  5211  TIP3   OH2 31839  -0.834000  15.999400
31840         HT  5211  TIP3    H1 31840   0.417000   1.008000
31841         HT  5211  TIP3    H2 31841   0.417000   1.008000
31842         OT  5212  TIP3   OH2 31842  -0.834000  15.999400
31843         HT  5212  TIP3    H1 31843   0.417000   1.008000
31844         HT  5212  TIP3    H2 31844   0.417000   1.008000
31845         OT  5213  TIP3   OH2 31845  -0.834000  15.999400
31846         HT  5213  TIP3    H1 31846   0.417000   1.008000
31847         HT  5213  TIP3    H2 31847   0.417000   1.008000
31848         OT  5214  TIP3   OH2 31848  -0.834000  15.999400
31849         HT  5214  TIP3    H1 31849   0.417000   1.008000
31850         HT  5214  TIP3    H2 31850   0.417000   1.008000
31851         OT  5215  TIP3   OH2 31851  -0.834000  15.999400
31852         HT  5215  TIP3    H1 31852   0.417000   1.008000
31853         HT  5215  TIP3    H2 31853   0.417000   1.008000
31854         OT  5216  TIP3   OH2 31854  -0.834000  15.999400
31855         HT  5216  TIP3    H1 31855   0.417000   1.008000
31856         HT  5216  TIP3    H2 31856   0.417000   1.008000
31857         OT  5217  TIP3   OH2 31857  -0.834000  15.999400
31858         HT  5217  TIP3    H1 31858   0.417000   1.008000
31859         HT  5217  TIP3    H2 31859   0.417000   1.008000
31860         OT  5218  TIP3   OH2 31860  -0.834000  15.999400
31861         HT  5218  TIP3    H1 31861   0.417000   1.008000
31862         HT  5218  TIP3    H2 31862   0.417000   1.008000
31863         OT  5219  TIP3   OH2 31863  -0.834000  15.999400
31864         HT  5219  TIP3    H1 31864   0.417000   1.008000
31865         HT  5219  TIP3    H2 31865   0.417000   1.008000
31866         OT  5220  TIP3   OH2 31866  -0.834000  15.999400
31867         HT  5220  TIP3    H1 31867   0.417000   1.008000
31868         HT  5220  TIP3    H2 31868   0.417000   1.008000
31869         OT  5221  TIP3   OH2 31869  -0.834000  15.999400
31870         HT  5221  TIP3    H1 31870   0.417000   1.008000
31871         HT  5221  TIP3    H2 31871   0.417000   1.008000
31872         OT  5222  TIP3   OH2 31872  -0.834000  15.999400
31873         HT  5222  TIP3    H1 31873   0.417000   1.008000
31874         HT  5222  TIP3    H2 31874   0.417000   1.008000
31875         OT  5223  TIP3   OH2 31875  -0.834000  15.999400
31876         HT  5223  TIP3    H1 31876   0.417000   1.008000
31877         HT  5223  TIP3    H2 31877   0.417000   1.008000
31878         OT  5224  TIP3   OH2 31878  -0.834000  15.999400
31879         HT  5224  TIP3    H1 31879   0.417000   1.008000
31880         HT  5224  TIP3    H2 31880   0.417000   1.008000
31881         OT  5225  TIP3   OH2 31881  -0.834000  15.999400
31882         HT  5225  TIP3    H1 31882   0.417000   1.008000
31883         HT  5225  TIP3    H2 31883   0.417000   1.008000
31884         OT  5226  TIP3   OH2 31884  -0.834000  15.999400
31885         HT  5226  TIP3    H1 31885   0.417000   1.008000
31886         HT  5226  TIP3    H2 31886   0.417000   1.008000
31887         OT  5227  TIP3   OH2 31887  -0.834000  15.999400
31888         HT  5227  TIP3    H1 31888   0.417000   1.008000
31889         HT  5227  TIP3    H2 31889   0.417000   1.008000
31890         OT  5228  TIP3   OH2 31890  -0.834000  15.999400
31891         HT  5228  TIP3    H1 31891   0.417000   1.008000
31892         HT  5228  TIP3    H2 31892   0.417000   1.008000
31893         OT  5229  TIP3   OH2 31893  -0.834000  15.999400
31894         HT  5229  TIP3    H1 31894   0.417000   1.008000
31895         HT  5229  TIP3    H2 31895   0.417000   1.008000
31896         OT  5230  TIP3   OH2 31896  -0.834000  15.999400
31897         HT  5230  TIP3    H1 31897   0.417000   1.008000
31898         HT  5230  TIP3    H2 31898   0.417000   1.008000
31899         OT  5231  TIP3   OH2 31899  -0.834000  15.999400
31900         HT  5231  TIP3    H1 31900   0.417000   1.008000
31901         HT  5231  TIP3    H2 31901   0.417000   1.008000
31902         OT  5232  TIP3   OH2 31902  -0.834000  15.999400
31903         HT  5232  TIP3    H1 31903   0.417000   1.008000
31904         HT  5232  TIP3    H2 31904   0.417000   1.008000
31905         OT  5233  TIP3   OH2 31905  -0.834000  15.999400
31906         HT  5233  TIP3    H1 31906   0.417000   1.008000
31907         HT  5233  TIP3    H2 31907   0.417000   1.008000
31908         OT  5234  TIP3   OH2 31908  -0.834000  15.999400
31909         HT  5234  TIP3    H1 31909   0.417000   1.008000
31910         HT  5234  TIP3    H2 31910   0.417000   1.008000
31911         OT  5235  TIP3   OH2 31911  -0.834000  15.999400
31912         HT  5235  TIP3    H1 31912   0.417000   1.008000
31913         HT  5235  TIP3    H2 31913   0.417000   1.008000
31914         OT  5236  TIP3   OH2 31914  -0.834000  15.999400
31915         HT  5236  TIP3    H1 31915   0.417000   1.008000
31916         HT  5236  TIP3    H2 31916   0.417000   1.008000
31917         OT  5237  TIP3   OH2 31917  -0.834000  15.999400
31918         HT  5237  TIP3    H1 31918   0.417000   1.008000
31919         HT  5237  TIP3    H2 31919   0.417000   1.008000
31920         OT  5238  TIP3   OH2 31920  -0.834000  15.999400
31921         HT  5238  TIP3    H1 31921   0.417000   1.008000
31922         HT  5238  TIP3    H2 31922   0.417000   1.008000
31923         OT  5239  TIP3   OH2 31923  -0.834000  15.999400
31924         HT  5239  TIP3    H1 31924   0.417000   1.008000
31925         HT  5239  TIP3    H2 31925   0.417000   1.008000
31926         OT  5240  TIP3   OH2 31926  -0.834000  15.999400
31927         HT  5240  TIP3    H1 31927   0.417000   1.008000
31928         HT  5240  TIP3    H2 31928   0.417000   1.008000
31929         OT  5241  TIP3   OH2 31929  -0.834000  15.999400
31930         HT  5241  TIP3    H1 31930   0.417000   1.008000
31931         HT  5241  TIP3    H2 31931   0.417000   1.008000
31932         OT  5242  TIP3   OH2 31932  -0.834000  15.999400
31933         HT  5242  TIP3    H1 31933   0.417000   1.008000
31934         HT  5242  TIP3    H2 31934   0.417000   1.008000
31935         OT  5243  TIP3   OH2 31935  -0.834000  15.999400
31936         HT  5243  TIP3    H1 31936   0.417000   1.008000
31937         HT  5243  TIP3    H2 31937   0.417000   1.008000
31938         OT  5244  TIP3   OH2 31938  -0.834000  15.999400
31939         HT  5244  TIP3    H1 31939   0.417000   1.008000
31940         HT  5244  TIP3    H2 31940   0.417000   1.008000
31941         OT  5245  TIP3   OH2 31941  -0.834000  15.999400
31942         HT  5245  TIP3    H1 31942   0.417000   1.008000
31943         HT  5245  TIP3    H2 31943   0.417000   1.008000
31944         OT  5246  TIP3   OH2 31944  -0.834000  15.999400
31945         HT  5246  TIP3    H1 31945   0.417000   1.008000
31946         HT  5246  TIP3    H2 31946   0.417000   1.008000
31947         OT  5247  TIP3   OH2 31947  -0.834000  15.999400
31948         HT  5247  TIP3    H1 31948   0.417000   1.008000
31949         HT  5247  TIP3    H2 31949   0.417000   1.008000
31950         OT  5248  TIP3   OH2 31950  -0.834000  15.999400
31951         HT  5248  TIP3    H1 31951   0.417000   1.008000
31952         HT  5248  TIP3    H2 31952   0.417000   1.008000
31953         OT  5249  TIP3   OH2 31953  -0.834000  15.999400
31954         HT  5249  TIP3    H1 31954   0.417000   1.008000
31955         HT  5249  TIP3    H2 31955   0.417000   1.008000
31956         OT  5250  TIP3   OH2 31956  -0.834000  15.999400
31957         HT  5250  TIP3    H1 31957   0.417000   1.008000
31958         HT  5250  TIP3    H2 31958   0.417000   1.008000
31959         OT  5251  TIP3   OH2 31959  -0.834000  15.999400
31960         HT  5251  TIP3    H1 31960   0.417000   1.008000
31961         HT  5251  TIP3    H2 31961   0.417000   1.008000
31962         OT  5252  TIP3   OH2 31962  -0.834000  15.999400
31963         HT  5252  TIP3    H1 31963   0.417000   1.008000
31964         HT  5252  TIP3    H2 31964   0.417000   1.008000
31965         OT  5253  TIP3   OH2 31965  -0.834000  15.999400
31966         HT  5253  TIP3    H1 31966   0.417000   1.008000
31967         HT  5253  TIP3    H2 31967   0.417000   1.008000
31968         OT  5254  TIP3   OH2 31968  -0.834000  15.999400
31969         HT  5254  TIP3    H1 31969   0.417000   1.008000
31970         HT  5254  TIP3    H2 31970   0.417000   1.008000
31971         OT  5255  TIP3   OH2 31971  -0.834000  15.999400
31972         HT  5255  TIP3    H1 31972   0.417000   1.008000
31973         HT  5255  TIP3    H2 31973   0.417000   1.008000
31974         OT  5256  TIP3   OH2 31974  -0.834000  15.999400
31975         HT  5256  TIP3    H1 31975   0.417000   1.008000
31976         HT  5256  TIP3    H2 31976   0.417000   1.008000
31977         OT  5257  TIP3   OH2 31977  -0.834000  15.999400
31978         HT  5257  TIP3    H1 31978   0.417000   1.008000
31979         HT  5257  TIP3    H2 31979   0.417000   1.008000
31980         OT  5258  TIP3   OH2 31980  -0.834000  15.999400
31981         HT  5258  TIP3    H1 31981   0.417000   1.008000
31982         HT  5258  TIP3    H2 31982   0.417000   1.008000
31983         OT  5259  TIP3   OH2 31983  -0.834000  15.999400
31984         HT  5259  TIP3    H1 31984   0.417000   1.008000
31985         HT  5259  TIP3    H2 31985   0.417000   1.008000
31986         OT  5260  TIP3   OH2 31986  -0.834000  15.999400
31987         HT  5260  TIP3    H1 31987   0.417000   1.008000
31988         HT  5260  TIP3    H2 31988   0.417000   1.008000
31989         OT  5261  TIP3   OH2 31989  -0.834000  15.999400
31990         HT  5261  TIP3    H1 31990   0.417000   1.008000
31991         HT  5261  TIP3    H2 31991   0.417000   1.008000
31992         OT  5262  TIP3   OH2 31992  -0.834000  15.999400
31993         HT  5262  TIP3    H1 31993   0.417000   1.008000
31994         HT  5262  TIP3    H2 31994   0.417000   1.008000
31995         OT  5263  TIP3   OH2 31995  -0.834000  15.999400
31996         HT  5263  TIP3    H1 31996   0.417000   1.008000
31997         HT  5263  TIP3    H2 31997   0.417000   1.008000
31998         OT  5264  TIP3   OH2 31998  -0.834000  15.999400
31999         HT  5264  TIP3    H1 31999   0.417000   1.008000
32000         HT  5264  TIP3    H2 32000   0.417000   1.008000
32001         OT  5265  TIP3   OH2 32001  -0.834000  15.999400
32002         HT  5265  TIP3    H1 32002   0.417000   1.008000
32003         HT  5265  TIP3    H2 32003   0.417000   1.008000
32004         OT  5266  TIP3   OH2 32004  -0.834000  15.999400
32005         HT  5266  TIP3    H1 32005   0.417000   1.008000
32006         HT  5266  TIP3    H2 32006   0.417000   1.008000
32007         OT  5267  TIP3   OH2 32007  -0.834000  15.999400
32008         HT  5267  TIP3    H1 32008   0.417000   1.008000
32009         HT  5267  TIP3    H2 32009   0.417000   1.008000
32010         OT  5268  TIP3   OH2 32010  -0.834000  15.999400
32011         HT  5268  TIP3    H1 32011   0.417000   1.008000
32012         HT  5268  TIP3    H2 32012   0.417000   1.008000
32013         OT  5269  TIP3   OH2 32013  -0.834000  15.999400
32014         HT  5269  TIP3    H1 32014   0.417000   1.008000
32015         HT  5269  TIP3    H2 32015   0.417000   1.008000
32016         OT  5270  TIP3   OH2 32016  -0.834000  15.999400
32017         HT  5270  TIP3    H1 32017   0.417000   1.008000
32018         HT  5270  TIP3    H2 32018   0.417000   1.008000
32019         OT  5271  TIP3   OH2 32019  -0.834000  15.999400
32020         HT  5271  TIP3    H1 32020   0.417000   1.008000
32021         HT  5271  TIP3    H2 32021   0.417000   1.008000
32022         OT  5272  TIP3   OH2 32022  -0.834000  15.999400
32023         HT  5272  TIP3    H1 32023   0.417000   1.008000
32024         HT  5272  TIP3    H2 32024   0.417000   1.008000
32025         OT  5273  TIP3   OH2 32025  -0.834000  15.999400
32026         HT  5273  TIP3    H1 32026   0.417000   1.008000
32027         HT  5273  TIP3    H2 32027   0.417000   1.008000
32028         OT  5274  TIP3   OH2 32028  -0.834000  15.999400
32029         HT  5274  TIP3    H1 32029   0.417000   1.008000
32030         HT  5274  TIP3    H2 32030   0.417000   1.008000
32031         OT  5275  TIP3   OH2 32031  -0.834000  15.999400
32032         HT  5275  TIP3    H1 32032   0.417000   1.008000
32033         HT  5275  TIP3    H2 32033   0.417000   1.008000
32034         OT  5276  TIP3   OH2 32034  -0.834000  15.999400
32035         HT  5276  TIP3    H1 32035   0.417000   1.008000
32036         HT  5276  TIP3    H2 32036   0.417000   1.008000
32037         OT  5277  TIP3   OH2 32037  -0.834000  15.999400
32038         HT  5277  TIP3    H1 32038   0.417000   1.008000
32039         HT  5277  TIP3    H2 32039   0.417000   1.008000
32040         OT  5278  TIP3   OH2 32040  -0.834000  15.999400
32041         HT  5278  TIP3    H1 32041   0.417000   1.008000
32042         HT  5278  TIP3    H2 32042   0.417000   1.008000
32043         OT  5279  TIP3   OH2 32043  -0.834000  15.999400
32044         HT  5279  TIP3    H1 32044   0.417000   1.008000
32045         HT  5279  TIP3    H2 32045   0.417000   1.008000
32046         OT  5280  TIP3   OH2 32046  -0.834000  15.999400
32047         HT  5280  TIP3    H1 32047   0.417000   1.008000
32048         HT  5280  TIP3    H2 32048   0.417000   1.008000
32049         OT  5281  TIP3   OH2 32049  -0.834000  15.999400
32050         HT  5281  TIP3    H1 32050   0.417000   1.008000
32051         HT  5281  TIP3    H2 32051   0.417000   1.008000
32052         OT  5282  TIP3   OH2 32052  -0.834000  15.999400
32053         HT  5282  TIP3    H1 32053   0.417000   1.008000
32054         HT  5282  TIP3    H2 32054   0.417000   1.008000
32055         OT  5283  TIP3   OH2 32055  -0.834000  15.999400
32056         HT  5283  TIP3    H1 32056   0.417000   1.008000
32057         HT  5283  TIP3    H2 32057   0.417000   1.008000
32058         OT  5284  TIP3   OH2 32058  -0.834000  15.999400
32059         HT  5284  TIP3    H1 32059   0.417000   1.008000
32060         HT  5284  TIP3    H2 32060   0.417000   1.008000
32061         OT  5285  TIP3   OH2 32061  -0.834000  15.999400
32062         HT  5285  TIP3    H1 32062   0.417000   1.008000
32063         HT  5285  TIP3    H2 32063   0.417000   1.008000
32064         OT  5286  TIP3   OH2 32064  -0.834000  15.999400
32065         HT  5286  TIP3    H1 32065   0.417000   1.008000
32066         HT  5286  TIP3    H2 32066   0.417000   1.008000
32067         OT  5287  TIP3   OH2 32067  -0.834000  15.999400
32068         HT  5287  TIP3    H1 32068   0.417000   1.008000
32069         HT  5287  TIP3    H2 32069   0.417000   1.008000
32070         OT  5288  TIP3   OH2 32070  -0.834000  15.999400
32071         HT  5288  TIP3    H1 32071   0.417000   1.008000
32072         HT  5288  TIP3    H2 32072   0.417000   1.008000
32073         OT  5289  TIP3   OH2 32073  -0.834000  15.999400
32074         HT  5289  TIP3    H1 32074   0.417000   1.008000
32075         HT  5289  TIP3    H2 32075   0.417000   1.008000
32076         OT  5290  TIP3   OH2 32076  -0.834000  15.999400
32077         HT  5290  TIP3    H1 32077   0.417000   1.008000
32078         HT  5290  TIP3    H2 32078   0.417000   1.008000
32079         OT  5291  TIP3   OH2 32079  -0.834000  15.999400
32080         HT  5291  TIP3    H1 32080   0.417000   1.008000
32081         HT  5291  TIP3    H2 32081   0.417000   1.008000
32082         OT  5292  TIP3   OH2 32082  -0.834000  15.999400
32083         HT  5292  TIP3    H1 32083   0.417000   1.008000
32084         HT  5292  TIP3    H2 32084   0.417000   1.008000
32085         OT  5293  TIP3   OH2 32085  -0.834000  15.999400
32086         HT  5293  TIP3    H1 32086   0.417000   1.008000
32087         HT  5293  TIP3    H2 32087   0.417000   1.008000
32088         OT  5294  TIP3   OH2 32088  -0.834000  15.999400
32089         HT  5294  TIP3    H1 32089   0.417000   1.008000
32090         HT  5294  TIP3    H2 32090   0.417000   1.008000
32091         OT  5295  TIP3   OH2 32091  -0.834000  15.999400
32092         HT  5295  TIP3    H1 32092   0.417000   1.008000
32093         HT  5295  TIP3    H2 32093   0.417000   1.008000
32094         OT  5296  TIP3   OH2 32094  -0.834000  15.999400
32095         HT  5296  TIP3    H1 32095   0.417000   1.008000
32096         HT  5296  TIP3    H2 32096   0.417000   1.008000
32097         OT  5297  TIP3   OH2 32097  -0.834000  15.999400
32098         HT  5297  TIP3    H1 32098   0.417000   1.008000
32099         HT  5297  TIP3    H2 32099   0.417000   1.008000
32100         OT  5298  TIP3   OH2 32100  -0.834000  15.999400
32101         HT  5298  TIP3    H1 32101   0.417000   1.008000
32102         HT  5298  TIP3    H2 32102   0.417000   1.008000
32103         OT  5299  TIP3   OH2 32103  -0.834000  15.999400
32104         HT  5299  TIP3    H1 32104   0.417000   1.008000
32105         HT  5299  TIP3    H2 32105   0.417000   1.008000
32106         OT  5300  TIP3   OH2 32106  -0.834000  15.999400
32107         HT  5300  TIP3    H1 32107   0.417000   1.008000
32108         HT  5300  TIP3    H2 32108   0.417000   1.008000
32109         OT  5301  TIP3   OH2 32109  -0.834000  15.999400
32110         HT  5301  TIP3    H1 32110   0.417000   1.008000
32111         HT  5301  TIP3    H2 32111   0.417000   1.008000
32112         OT  5302  TIP3   OH2 32112  -0.834000  15.999400
32113         HT  5302  TIP3    H1 32113   0.417000   1.008000
32114         HT  5302  TIP3    H2 32114   0.417000   1.008000
32115         OT  5303  TIP3   OH2 32115  -0.834000  15.999400
32116         HT  5303  TIP3    H1 32116   0.417000   1.008000
32117         HT  5303  TIP3    H2 32117   0.417000   1.008000
32118         OT  5304  TIP3   OH2 32118  -0.834000  15.999400
32119         HT  5304  TIP3    H1 32119   0.417000   1.008000
32120         HT  5304  TIP3    H2 32120   0.417000   1.008000
32121         OT  5305  TIP3   OH2 32121  -0.834000  15.999400
32122         HT  5305  TIP3    H1 32122   0.417000   1.008000
32123         HT  5305  TIP3    H2 32123   0.417000   1.008000
32124         OT  5306  TIP3   OH2 32124  -0.834000  15.999400
32125         HT  5306  TIP3    H1 32125   0.417000   1.008000
32126         HT  5306  TIP3    H2 32126   0.417000   1.008000
32127         OT  5307  TIP3   OH2 32127  -0.834000  15.999400
32128         HT  5307  TIP3    H1 32128   0.417000   1.008000
32129         HT  5307  TIP3    H2 32129   0.417000   1.008000
32130         OT  5308  TIP3   OH2 32130  -0.834000  15.999400
32131         HT  5308  TIP3    H1 32131   0.417000   1.008000
32132         HT  5308  TIP3    H2 32132   0.417000   1.008000
32133         OT  5309  TIP3   OH2 32133  -0.834000  15.999400
32134         HT  5309  TIP3    H1 32134   0.417000   1.008000
32135         HT  5309  TIP3    H2 32135   0.417000   1.008000
32136         OT  5310  TIP3   OH2 32136  -0.834000  15.999400
32137         HT  5310  TIP3    H1 32137   0.417000   1.008000
32138         HT  5310  TIP3    H2 32138   0.417000   1.008000
32139         OT  5311  TIP3   OH2 32139  -0.834000  15.999400
32140         HT  5311  TIP3    H1 32140   0.417000   1.008000
32141         HT  5311  TIP3    H2 32141   0.417000   1.008000
32142         OT  5312  TIP3   OH2 32142  -0.834000  15.999400
32143         HT  5312  TIP3    H1 32143   0.417000   1.008000
32144         HT  5312  TIP3    H2 32144   0.417000   1.008000
32145         OT  5313  TIP3   OH2 32145  -0.834000  15.999400
32146         HT  5313  TIP3    H1 32146   0.417000   1.008000
32147         HT  5313  TIP3    H2 32147   0.417000   1.008000
32148         OT  5314  TIP3   OH2 32148  -0.834000  15.999400
32149         HT  5314  TIP3    H1 32149   0.417000   1.008000
32150         HT  5314  TIP3    H2 32150   0.417000   1.008000
32151         OT  5315  TIP3   OH2 32151  -0.834000  15.999400
32152         HT  5315  TIP3    H1 32152   0.417000   1.008000
32153         HT  5315  TIP3    H2 32153   0.417000   1.008000
32154         OT  5316  TIP3   OH2 32154  -0.834000  15.999400
32155         HT  5316  TIP3    H1 32155   0.417000   1.008000
32156         HT  5316  TIP3    H2 32156   0.417000   1.008000
32157         OT  5317  TIP3   OH2 32157  -0.834000  15.999400
32158         HT  5317  TIP3    H1 32158   0.417000   1.008000
32159         HT  5317  TIP3    H2 32159   0.417000   1.008000
32160         OT  5318  TIP3   OH2 32160  -0.834000  15.999400
32161         HT  5318  TIP3    H1 32161   0.417000   1.008000
32162         HT  5318  TIP3    H2 32162   0.417000   1.008000
32163         OT  5319  TIP3   OH2 32163  -0.834000  15.999400
32164         HT  5319  TIP3    H1 32164   0.417000   1.008000
32165         HT  5319  TIP3    H2 32165   0.417000   1.008000
32166         OT  5320  TIP3   OH2 32166  -0.834000  15.999400
32167         HT  5320  TIP3    H1 32167   0.417000   1.008000
32168         HT  5320  TIP3    H2 32168   0.417000   1.008000
32169         OT  5321  TIP3   OH2 32169  -0.834000  15.999400
32170         HT  5321  TIP3    H1 32170   0.417000   1.008000
32171         HT  5321  TIP3    H2 32171   0.417000   1.008000
32172         OT  5322  TIP3   OH2 32172  -0.834000  15.999400
32173         HT  5322  TIP3    H1 32173   0.417000   1.008000
32174         HT  5322  TIP3    H2 32174   0.417000   1.008000
32175         OT  5323  TIP3   OH2 32175  -0.834000  15.999400
32176         HT  5323  TIP3    H1 32176   0.417000   1.008000
32177         HT  5323  TIP3    H2 32177   0.417000   1.008000
32178         OT  5324  TIP3   OH2 32178  -0.834000  15.999400
32179         HT  5324  TIP3    H1 32179   0.417000   1.008000
32180         HT  5324  TIP3    H2 32180   0.417000   1.008000
32181         OT  5325  TIP3   OH2 32181  -0.834000  15.999400
32182         HT  5325  TIP3    H1 32182   0.417000   1.008000
32183         HT  5325  TIP3    H2 32183   0.417000   1.008000
32184         OT  5326  TIP3   OH2 32184  -0.834000  15.999400
32185         HT  5326  TIP3    H1 32185   0.417000   1.008000
32186         HT  5326  TIP3    H2 32186   0.417000   1.008000
32187         OT  5327  TIP3   OH2 32187  -0.834000  15.999400
32188         HT  5327  TIP3    H1 32188   0.417000   1.008000
32189         HT  5327  TIP3    H2 32189   0.417000   1.008000
32190         OT  5328  TIP3   OH2 32190  -0.834000  15.999400
32191         HT  5328  TIP3    H1 32191   0.417000   1.008000
32192         HT  5328  TIP3    H2 32192   0.417000   1.008000
32193         OT  5329  TIP3   OH2 32193  -0.834000  15.999400
32194         HT  5329  TIP3    H1 32194   0.417000   1.008000
32195         HT  5329  TIP3    H2 32195   0.417000   1.008000
32196         OT  5330  TIP3   OH2 32196  -0.834000  15.999400
32197         HT  5330  TIP3    H1 32197   0.417000   1.008000
32198         HT  5330  TIP3    H2 32198   0.417000   1.008000
32199         OT  5331  TIP3   OH2 32199  -0.834000  15.999400
32200         HT  5331  TIP3    H1 32200   0.417000   1.008000
32201         HT  5331  TIP3    H2 32201   0.417000   1.008000
32202         OT  5332  TIP3   OH2 32202  -0.834000  15.999400
32203         HT  5332  TIP3    H1 32203   0.417000   1.008000
32204         HT  5332  TIP3    H2 32204   0.417000   1.008000
32205         OT  5333  TIP3   OH2 32205  -0.834000  15.999400
32206         HT  5333  TIP3    H1 32206   0.417000   1.008000
32207         HT  5333  TIP3    H2 32207   0.417000   1.008000
32208         OT  5334  TIP3   OH2 32208  -0.834000  15.999400
32209         HT  5334  TIP3    H1 32209   0.417000   1.008000
32210         HT  5334  TIP3    H2 32210   0.417000   1.008000
32211         OT  5335  TIP3   OH2 32211  -0.834000  15.999400
32212         HT  5335  TIP3    H1 32212   0.417000   1.008000
32213         HT  5335  TIP3    H2 32213   0.417000   1.008000
32214         OT  5336  TIP3   OH2 32214  -0.834000  15.999400
32215         HT  5336  TIP3    H1 32215   0.417000   1.008000
32216         HT  5336  TIP3    H2 32216   0.417000   1.008000
32217         OT  5337  TIP3   OH2 32217  -0.834000  15.999400
32218         HT  5337  TIP3    H1 32218   0.417000   1.008000
32219         HT  5337  TIP3    H2 32219   0.417000   1.008000
32220         OT  5338  TIP3   OH2 32220  -0.834000  15.999400
32221         HT  5338  TIP3    H1 32221   0.417000   1.008000
32222         HT  5338  TIP3    H2 32222   0.417000   1.008000
32223         OT  5339  TIP3   OH2 32223  -0.834000  15.999400
32224         HT  5339  TIP3    H1 32224   0.417000   1.008000
32225         HT  5339  TIP3    H2 32225   0.417000   1.008000
32226         OT  5340  TIP3   OH2 32226  -0.834000  15.999400
32227         HT  5340  TIP3    H1 32227   0.417000   1.008000
32228         HT  5340  TIP3    H2 32228   0.417000   1.008000
32229         OT  5341  TIP3   OH2 32229  -0.834000  15.999400
32230         HT  5341  TIP3    H1 32230   0.417000   1.008000
32231         HT  5341  TIP3    H2 32231   0.417000   1.008000
32232         OT  5342  TIP3   OH2 32232  -0.834000  15.999400
32233         HT  5342  TIP3    H1 32233   0.417000   1.008000
32234         HT  5342  TIP3    H2 32234   0.417000   1.008000
32235         OT  5343  TIP3   OH2 32235  -0.834000  15.999400
32236         HT  5343  TIP3    H1 32236   0.417000   1.008000
32237         HT  5343  TIP3    H2 32237   0.417000   1.008000
32238         OT  5344  TIP3   OH2 32238  -0.834000  15.999400
32239         HT  5344  TIP3    H1 32239   0.417000   1.008000
32240         HT  5344  TIP3    H2 32240   0.417000   1.008000
32241         OT  5345  TIP3   OH2 32241  -0.834000  15.999400
32242         HT  5345  TIP3    H1 32242   0.417000   1.008000
32243         HT  5345  TIP3    H2 32243   0.417000   1.008000
32244         OT  5346  TIP3   OH2 32244  -0.834000  15.999400
32245         HT  5346  TIP3    H1 32245   0.417000   1.008000
32246         HT  5346  TIP3    H2 32246   0.417000   1.008000
32247         OT  5347  TIP3   OH2 32247  -0.834000  15.999400
32248         HT  5347  TIP3    H1 32248   0.417000   1.008000
32249         HT  5347  TIP3    H2 32249   0.417000   1.008000
32250         OT  5348  TIP3   OH2 32250  -0.834000  15.999400
32251         HT  5348  TIP3    H1 32251   0.417000   1.008000
32252         HT  5348  TIP3    H2 32252   0.417000   1.008000
32253         OT  5349  TIP3   OH2 32253  -0.834000  15.999400
32254         HT  5349  TIP3    H1 32254   0.417000   1.008000
32255         HT  5349  TIP3    H2 32255   0.417000   1.008000
32256         OT  5350  TIP3   OH2 32256  -0.834000  15.999400
32257         HT  5350  TIP3    H1 32257   0.417000   1.008000
32258         HT  5350  TIP3    H2 32258   0.417000   1.008000
32259         OT  5351  TIP3   OH2 32259  -0.834000  15.999400
32260         HT  5351  TIP3    H1 32260   0.417000   1.008000
32261         HT  5351  TIP3    H2 32261   0.417000   1.008000
32262         OT  5352  TIP3   OH2 32262  -0.834000  15.999400
32263         HT  5352  TIP3    H1 32263   0.417000   1.008000
32264         HT  5352  TIP3    H2 32264   0.417000   1.008000
32265         OT  5353  TIP3   OH2 32265  -0.834000  15.999400
32266         HT  5353  TIP3    H1 32266   0.417000   1.008000
32267         HT  5353  TIP3    H2 32267   0.417000   1.008000
32268         OT  5354  TIP3   OH2 32268  -0.834000  15.999400
32269         HT  5354  TIP3    H1 32269   0.417000   1.008000
32270         HT  5354  TIP3    H2 32270   0.417000   1.008000
32271         OT  5355  TIP3   OH2 32271  -0.834000  15.999400
32272         HT  5355  TIP3    H1 32272   0.417000   1.008000
32273         HT  5355  TIP3    H2 32273   0.417000   1.008000
32274         OT  5356  TIP3   OH2 32274  -0.834000  15.999400
32275         HT  5356  TIP3    H1 32275   0.417000   1.008000
32276         HT  5356  TIP3    H2 32276   0.417000   1.008000
32277         OT  5357  TIP3   OH2 32277  -0.834000  15.999400
32278         HT  5357  TIP3    H1 32278   0.417000   1.008000
32279         HT  5357  TIP3    H2 32279   0.417000   1.008000
32280         OT  5358  TIP3   OH2 32280  -0.834000  15.999400
32281         HT  5358  TIP3    H1 32281   0.417000   1.008000
32282         HT  5358  TIP3    H2 32282   0.417000   1.008000
32283         OT  5359  TIP3   OH2 32283  -0.834000  15.999400
32284         HT  5359  TIP3    H1 32284   0.417000   1.008000
32285         HT  5359  TIP3    H2 32285   0.417000   1.008000
32286         OT  5360  TIP3   OH2 32286  -0.834000  15.999400
32287         HT  5360  TIP3    H1 32287   0.417000   1.008000
32288         HT  5360  TIP3    H2 32288   0.417000   1.008000
32289         OT  5361  TIP3   OH2 32289  -0.834000  15.999400
32290         HT  5361  TIP3    H1 32290   0.417000   1.008000
32291         HT  5361  TIP3    H2 32291   0.417000   1.008000
32292         OT  5362  TIP3   OH2 32292  -0.834000  15.999400
32293         HT  5362  TIP3    H1 32293   0.417000   1.008000
32294         HT  5362  TIP3    H2 32294   0.417000   1.008000
32295         OT  5363  TIP3   OH2 32295  -0.834000  15.999400
32296         HT  5363  TIP3    H1 32296   0.417000   1.008000
32297         HT  5363  TIP3    H2 32297   0.417000   1.008000
32298         OT  5364  TIP3   OH2 32298  -0.834000  15.999400
32299         HT  5364  TIP3    H1 32299   0.417000   1.008000
32300         HT  5364  TIP3    H2 32300   0.417000   1.008000
32301         OT  5365  TIP3   OH2 32301  -0.834000  15.999400
32302         HT  5365  TIP3    H1 32302   0.417000   1.008000
32303         HT  5365  TIP3    H2 32303   0.417000   1.008000
32304         OT  5366  TIP3   OH2 32304  -0.834000  15.999400
32305         HT  5366  TIP3    H1 32305   0.417000   1.008000
32306         HT  5366  TIP3    H2 32306   0.417000   1.008000
32307         OT  5367  TIP3   OH2 32307  -0.834000  15.999400
32308         HT  5367  TIP3    H1 32308   0.417000   1.008000
32309         HT  5367  TIP3    H2 32309   0.417000   1.008000
32310         OT  5368  TIP3   OH2 32310  -0.834000  15.999400
32311         HT  5368  TIP3    H1 32311   0.417000   1.008000
32312         HT  5368  TIP3    H2 32312   0.417000   1.008000
32313         OT  5369  TIP3   OH2 32313  -0.834000  15.999400
32314         HT  5369  TIP3    H1 32314   0.417000   1.008000
32315         HT  5369  TIP3    H2 32315   0.417000   1.008000
32316         OT  5370  TIP3   OH2 32316  -0.834000  15.999400
32317         HT  5370  TIP3    H1 32317   0.417000   1.008000
32318         HT  5370  TIP3    H2 32318   0.417000   1.008000
32319         OT  5371  TIP3   OH2 32319  -0.834000  15.999400
32320         HT  5371  TIP3    H1 32320   0.417000   1.008000
32321         HT  5371  TIP3    H2 32321   0.417000   1.008000
32322         OT  5372  TIP3   OH2 32322  -0.834000  15.999400
32323         HT  5372  TIP3    H1 32323   0.417000   1.008000
32324         HT  5372  TIP3    H2 32324   0.417000   1.008000
32325         OT  5373  TIP3   OH2 32325  -0.834000  15.999400
32326         HT  5373  TIP3    H1 32326   0.417000   1.008000
32327         HT  5373  TIP3    H2 32327   0.417000   1.008000
32328         OT  5374  TIP3   OH2 32328  -0.834000  15.999400
32329         HT  5374  TIP3    H1 32329   0.417000   1.008000
32330         HT  5374  TIP3    H2 32330   0.417000   1.008000
32331         OT  5375  TIP3   OH2 32331  -0.834000  15.999400
32332         HT  5375  TIP3    H1 32332   0.417000   1.008000
32333         HT  5375  TIP3    H2 32333   0.417000   1.008000
32334         OT  5376  TIP3   OH2 32334  -0.834000  15.999400
32335         HT  5376  TIP3    H1 32335   0.417000   1.008000
32336         HT  5376  TIP3    H2 32336   0.417000   1.008000
32337         OT  5377  TIP3   OH2 32337  -0.834000  15.999400
32338         HT  5377  TIP3    H1 32338   0.417000   1.008000
32339         HT  5377  TIP3    H2 32339   0.417000   1.008000
32340         OT  5378  TIP3   OH2 32340  -0.834000  15.999400
32341         HT  5378  TIP3    H1 32341   0.417000   1.008000
32342         HT  5378  TIP3    H2 32342   0.417000   1.008000
32343         OT  5379  TIP3   OH2 32343  -0.834000  15.999400
32344         HT  5379  TIP3    H1 32344   0.417000   1.008000
32345         HT  5379  TIP3    H2 32345   0.417000   1.008000
32346         OT  5380  TIP3   OH2 32346  -0.834000  15.999400
32347         HT  5380  TIP3    H1 32347   0.417000   1.008000
32348         HT  5380  TIP3    H2 32348   0.417000   1.008000
32349         OT  5381  TIP3   OH2 32349  -0.834000  15.999400
32350         HT  5381  TIP3    H1 32350   0.417000   1.008000
32351         HT  5381  TIP3    H2 32351   0.417000   1.008000
32352         OT  5382  TIP3   OH2 32352  -0.834000  15.999400
32353         HT  5382  TIP3    H1 32353   0.417000   1.008000
32354         HT  5382  TIP3    H2 32354   0.417000   1.008000
32355         OT  5383  TIP3   OH2 32355  -0.834000  15.999400
32356         HT  5383  TIP3    H1 32356   0.417000   1.008000
32357         HT  5383  TIP3    H2 32357   0.417000   1.008000
32358         OT  5384  TIP3   OH2 32358  -0.834000  15.999400
32359         HT  5384  TIP3    H1 32359   0.417000   1.008000
32360         HT  5384  TIP3    H2 32360   0.417000   1.008000
32361         OT  5385  TIP3   OH2 32361  -0.834000  15.999400
32362         HT  5385  TIP3    H1 32362   0.417000   1.008000
32363         HT  5385  TIP3    H2 32363   0.417000   1.008000
32364         OT  5386  TIP3   OH2 32364  -0.834000  15.999400
32365         HT  5386  TIP3    H1 32365   0.417000   1.008000
32366         HT  5386  TIP3    H2 32366   0.417000   1.008000
32367         OT  5387  TIP3   OH2 32367  -0.834000  15.999400
32368         HT  5387  TIP3    H1 32368   0.417000   1.008000
32369         HT  5387  TIP3    H2 32369   0.417000   1.008000
32370         OT  5388  TIP3   OH2 32370  -0.834000  15.999400
32371         HT  5388  TIP3    H1 32371   0.417000   1.008000
32372         HT  5388  TIP3    H2 32372   0.417000   1.008000
32373         OT  5389  TIP3   OH2 32373  -0.834000  15.999400
32374         HT  5389  TIP3    H1 32374   0.417000   1.008000
32375         HT  5389  TIP3    H2 32375   0.417000   1.008000
32376         OT  5390  TIP3   OH2 32376  -0.834000  15.999400
32377         HT  5390  TIP3    H1 32377   0.417000   1.008000
32378         HT  5390  TIP3    H2 32378   0.417000   1.008000
32379         OT  5391  TIP3   OH2 32379  -0.834000  15.999400
32380         HT  5391  TIP3    H1 32380   0.417000   1.008000
32381         HT  5391  TIP3    H2 32381   0.417000   1.008000
32382         OT  5392  TIP3   OH2 32382  -0.834000  15.999400
32383         HT  5392  TIP3    H1 32383   0.417000   1.008000
32384         HT  5392  TIP3    H2 32384   0.417000   1.008000
32385         OT  5393  TIP3   OH2 32385  -0.834000  15.999400
32386         HT  5393  TIP3    H1 32386   0.417000   1.008000
32387         HT  5393  TIP3    H2 32387   0.417000   1.008000
32388         OT  5394  TIP3   OH2 32388  -0.834000  15.999400
32389         HT  5394  TIP3    H1 32389   0.417000   1.008000
32390         HT  5394  TIP3    H2 32390   0.417000   1.008000
32391         OT  5395  TIP3   OH2 32391  -0.834000  15.999400
32392         HT  5395  TIP3    H1 32392   0.417000   1.008000
32393         HT  5395  TIP3    H2 32393   0.417000   1.008000
32394         OT  5396  TIP3   OH2 32394  -0.834000  15.999400
32395         HT  5396  TIP3    H1 32395   0.417000   1.008000
32396         HT  5396  TIP3    H2 32396   0.417000   1.008000
32397         OT  5397  TIP3   OH2 32397  -0.834000  15.999400
32398         HT  5397  TIP3    H1 32398   0.417000   1.008000
32399         HT  5397  TIP3    H2 32399   0.417000   1.008000
32400         OT  5398  TIP3   OH2 32400  -0.834000  15.999400
32401         HT  5398  TIP3    H1 32401   0.417000   1.008000
32402         HT  5398  TIP3    H2 32402   0.417000   1.008000
32403         OT  5399  TIP3   OH2 32403  -0.834000  15.999400
32404         HT  5399  TIP3    H1 32404   0.417000   1.008000
32405         HT  5399  TIP3    H2 32405   0.417000   1.008000
32406         OT  5400  TIP3   OH2 32406  -0.834000  15.999400
32407         HT  5400  TIP3    H1 32407   0.417000   1.008000
32408         HT  5400  TIP3    H2 32408   0.417000   1.008000
32409         OT  5401  TIP3   OH2 32409  -0.834000  15.999400
32410         HT  5401  TIP3    H1 32410   0.417000   1.008000
32411         HT  5401  TIP3    H2 32411   0.417000   1.008000
32412         OT  5402  TIP3   OH2 32412  -0.834000  15.999400
32413         HT  5402  TIP3    H1 32413   0.417000   1.008000
32414         HT  5402  TIP3    H2 32414   0.417000   1.008000
32415         OT  5403  TIP3   OH2 32415  -0.834000  15.999400
32416         HT  5403  TIP3    H1 32416   0.417000   1.008000
32417         HT  5403  TIP3    H2 32417   0.417000   1.008000
32418         OT  5404  TIP3   OH2 32418  -0.834000  15.999400
32419         HT  5404  TIP3    H1 32419   0.417000   1.008000
32420         HT  5404  TIP3    H2 32420   0.417000   1.008000
32421         OT  5405  TIP3   OH2 32421  -0.834000  15.999400
32422         HT  5405  TIP3    H1 32422   0.417000   1.008000
32423         HT  5405  TIP3    H2 32423   0.417000   1.008000
32424         OT  5406  TIP3   OH2 32424  -0.834000  15.999400
32425         HT  5406  TIP3    H1 32425   0.417000   1.008000
32426         HT  5406  TIP3    H2 32426   0.417000   1.008000
32427         OT  5407  TIP3   OH2 32427  -0.834000  15.999400
32428         HT  5407  TIP3    H1 32428   0.417000   1.008000
32429         HT  5407  TIP3    H2 32429   0.417000   1.008000
32430         OT  5408  TIP3   OH2 32430  -0.834000  15.999400
32431         HT  5408  TIP3    H1 32431   0.417000   1.008000
32432         HT  5408  TIP3    H2 32432   0.417000   1.008000
32433         OT  5409  TIP3   OH2 32433  -0.834000  15.999400
32434         HT  5409  TIP3    H1 32434   0.417000   1.008000
32435         HT  5409  TIP3    H2 32435   0.417000   1.008000
32436         OT  5410  TIP3   OH2 32436  -0.834000  15.999400
32437         HT  5410  TIP3    H1 32437   0.417000   1.008000
32438         HT  5410  TIP3    H2 32438   0.417000   1.008000
32439         OT  5411  TIP3   OH2 32439  -0.834000  15.999400
32440         HT  5411  TIP3    H1 32440   0.417000   1.008000
32441         HT  5411  TIP3    H2 32441   0.417000   1.008000
32442         OT  5412  TIP3   OH2 32442  -0.834000  15.999400
32443         HT  5412  TIP3    H1 32443   0.417000   1.008000
32444         HT  5412  TIP3    H2 32444   0.417000   1.008000
32445         OT  5413  TIP3   OH2 32445  -0.834000  15.999400
32446         HT  5413  TIP3    H1 32446   0.417000   1.008000
32447         HT  5413  TIP3    H2 32447   0.417000   1.008000
32448         OT  5414  TIP3   OH2 32448  -0.834000  15.999400
32449         HT  5414  TIP3    H1 32449   0.417000   1.008000
32450         HT  5414  TIP3    H2 32450   0.417000   1.008000
32451         OT  5415  TIP3   OH2 32451  -0.834000  15.999400
32452         HT  5415  TIP3    H1 32452   0.417000   1.008000
32453         HT  5415  TIP3    H2 32453   0.417000   1.008000
32454         OT  5416  TIP3   OH2 32454  -0.834000  15.999400
32455         HT  5416  TIP3    H1 32455   0.417000   1.008000
32456         HT  5416  TIP3    H2 32456   0.417000   1.008000
32457         OT  5417  TIP3   OH2 32457  -0.834000  15.999400
32458         HT  5417  TIP3    H1 32458   0.417000   1.008000
32459         HT  5417  TIP3    H2 32459   0.417000   1.008000
32460         OT  5418  TIP3   OH2 32460  -0.834000  15.999400
32461         HT  5418  TIP3    H1 32461   0.417000   1.008000
32462         HT  5418  TIP3    H2 32462   0.417000   1.008000
32463         OT  5419  TIP3   OH2 32463  -0.834000  15.999400
32464         HT  5419  TIP3    H1 32464   0.417000   1.008000
32465         HT  5419  TIP3    H2 32465   0.417000   1.008000
32466         OT  5420  TIP3   OH2 32466  -0.834000  15.999400
32467         HT  5420  TIP3    H1 32467   0.417000   1.008000
32468         HT  5420  TIP3    H2 32468   0.417000   1.008000
32469         OT  5421  TIP3   OH2 32469  -0.834000  15.999400
32470         HT  5421  TIP3    H1 32470   0.417000   1.008000
32471         HT  5421  TIP3    H2 32471   0.417000   1.008000
32472         OT  5422  TIP3   OH2 32472  -0.834000  15.999400
32473         HT  5422  TIP3    H1 32473   0.417000   1.008000
32474         HT  5422  TIP3    H2 32474   0.417000   1.008000
32475         OT  5423  TIP3   OH2 32475  -0.834000  15.999400
32476         HT  5423  TIP3    H1 32476   0.417000   1.008000
32477         HT  5423  TIP3    H2 32477   0.417000   1.008000
32478         OT  5424  TIP3   OH2 32478  -0.834000  15.999400
32479         HT  5424  TIP3    H1 32479   0.417000   1.008000
32480         HT  5424  TIP3    H2 32480   0.417000   1.008000
32481         OT  5425  TIP3   OH2 32481  -0.834000  15.999400
32482         HT  5425  TIP3    H1 32482   0.417000   1.008000
32483         HT  5425  TIP3    H2 32483   0.417000   1.008000
32484         OT  5426  TIP3   OH2 32484  -0.834000  15.999400
32485         HT  5426  TIP3    H1 32485   0.417000   1.008000
32486         HT  5426  TIP3    H2 32486   0.417000   1.008000
32487         OT  5427  TIP3   OH2 32487  -0.834000  15.999400
32488         HT  5427  TIP3    H1 32488   0.417000   1.008000
32489         HT  5427  TIP3    H2 32489   0.417000   1.008000
32490         OT  5428  TIP3   OH2 32490  -0.834000  15.999400
32491         HT  5428  TIP3    H1 32491   0.417000   1.008000
32492         HT  5428  TIP3    H2 32492   0.417000   1.008000
32493         OT  5429  TIP3   OH2 32493  -0.834000  15.999400
32494         HT  5429  TIP3    H1 32494   0.417000   1.008000
32495         HT  5429  TIP3    H2 32495   0.417000   1.008000
32496         OT  5430  TIP3   OH2 32496  -0.834000  15.999400
32497         HT  5430  TIP3    H1 32497   0.417000   1.008000
32498         HT  5430  TIP3    H2 32498   0.417000   1.008000
32499         OT  5431  TIP3   OH2 32499  -0.834000  15.999400
32500         HT  5431  TIP3    H1 32500   0.417000   1.008000
32501         HT  5431  TIP3    H2 32501   0.417000   1.008000
32502         OT  5432  TIP3   OH2 32502  -0.834000  15.999400
32503         HT  5432  TIP3    H1 32503   0.417000   1.008000
32504         HT  5432  TIP3    H2 32504   0.417000   1.008000
32505         OT  5433  TIP3   OH2 32505  -0.834000  15.999400
32506         HT  5433  TIP3    H1 32506   0.417000   1.008000
32507         HT  5433  TIP3    H2 32507   0.417000   1.008000
32508         OT  5434  TIP3   OH2 32508  -0.834000  15.999400
32509         HT  5434  TIP3    H1 32509   0.417000   1.008000
32510         HT  5434  TIP3    H2 32510   0.417000   1.008000
32511         OT  5435  TIP3   OH2 32511  -0.834000  15.999400
32512         HT  5435  TIP3    H1 32512   0.417000   1.008000
32513         HT  5435  TIP3    H2 32513   0.417000   1.008000
32514         OT  5436  TIP3   OH2 32514  -0.834000  15.999400
32515         HT  5436  TIP3    H1 32515   0.417000   1.008000
32516         HT  5436  TIP3    H2 32516   0.417000   1.008000
32517         OT  5437  TIP3   OH2 32517  -0.834000  15.999400
32518         HT  5437  TIP3    H1 32518   0.417000   1.008000
32519         HT  5437  TIP3    H2 32519   0.417000   1.008000
32520         OT  5438  TIP3   OH2 32520  -0.834000  15.999400
32521         HT  5438  TIP3    H1 32521   0.417000   1.008000
32522         HT  5438  TIP3    H2 32522   0.417000   1.008000
32523         OT  5439  TIP3   OH2 32523  -0.834000  15.999400
32524         HT  5439  TIP3    H1 32524   0.417000   1.008000
32525         HT  5439  TIP3    H2 32525   0.417000   1.008000
32526         OT  5440  TIP3   OH2 32526  -0.834000  15.999400
32527         HT  5440  TIP3    H1 32527   0.417000   1.008000
32528         HT  5440  TIP3    H2 32528   0.417000   1.008000
32529         OT  5441  TIP3   OH2 32529  -0.834000  15.999400
32530         HT  5441  TIP3    H1 32530   0.417000   1.008000
32531         HT  5441  TIP3    H2 32531   0.417000   1.008000
32532         OT  5442  TIP3   OH2 32532  -0.834000  15.999400
32533         HT  5442  TIP3    H1 32533   0.417000   1.008000
32534         HT  5442  TIP3    H2 32534   0.417000   1.008000
32535         OT  5443  TIP3   OH2 32535  -0.834000  15.999400
32536         HT  5443  TIP3    H1 32536   0.417000   1.008000
32537         HT  5443  TIP3    H2 32537   0.417000   1.008000
32538         OT  5444  TIP3   OH2 32538  -0.834000  15.999400
32539         HT  5444  TIP3    H1 32539   0.417000   1.008000
32540         HT  5444  TIP3    H2 32540   0.417000   1.008000
32541         OT  5445  TIP3   OH2 32541  -0.834000  15.999400
32542         HT  5445  TIP3    H1 32542   0.417000   1.008000
32543         HT  5445  TIP3    H2 32543   0.417000   1.008000
32544         OT  5446  TIP3   OH2 32544  -0.834000  15.999400
32545         HT  5446  TIP3    H1 32545   0.417000   1.008000
32546         HT  5446  TIP3    H2 32546   0.417000   1.008000
32547         OT  5447  TIP3   OH2 32547  -0.834000  15.999400
32548         HT  5447  TIP3    H1 32548   0.417000   1.008000
32549         HT  5447  TIP3    H2 32549   0.417000   1.008000
32550         OT  5448  TIP3   OH2 32550  -0.834000  15.999400
32551         HT  5448  TIP3    H1 32551   0.417000   1.008000
32552         HT  5448  TIP3    H2 32552   0.417000   1.008000
32553         OT  5449  TIP3   OH2 32553  -0.834000  15.999400
32554         HT  5449  TIP3    H1 32554   0.417000   1.008000
32555         HT  5449  TIP3    H2 32555   0.417000   1.008000
32556         OT  5450  TIP3   OH2 32556  -0.834000  15.999400
32557         HT  5450  TIP3    H1 32557   0.417000   1.008000
32558         HT  5450  TIP3    H2 32558   0.417000   1.008000
32559         OT  5451  TIP3   OH2 32559  -0.834000  15.999400
32560         HT  5451  TIP3    H1 32560   0.417000   1.008000
32561         HT  5451  TIP3    H2 32561   0.417000   1.008000
32562         OT  5452  TIP3   OH2 32562  -0.834000  15.999400
32563         HT  5452  TIP3    H1 32563   0.417000   1.008000
32564         HT  5452  TIP3    H2 32564   0.417000   1.008000
32565         OT  5453  TIP3   OH2 32565  -0.834000  15.999400
32566         HT  5453  TIP3    H1 32566   0.417000   1.008000
32567         HT  5453  TIP3    H2 32567   0.417000   1.008000
32568         OT  5454  TIP3   OH2 32568  -0.834000  15.999400
32569         HT  5454  TIP3    H1 32569   0.417000   1.008000
32570         HT  5454  TIP3    H2 32570   0.417000   1.008000
32571         OT  5455  TIP3   OH2 32571  -0.834000  15.999400
32572         HT  5455  TIP3    H1 32572   0.417000   1.008000
32573         HT  5455  TIP3    H2 32573   0.417000   1.008000
32574         OT  5456  TIP3   OH2 32574  -0.834000  15.999400
32575         HT  5456  TIP3    H1 32575   0.417000   1.008000
32576         HT  5456  TIP3    H2 32576   0.417000   1.008000
32577         OT  5457  TIP3   OH2 32577  -0.834000  15.999400
32578         HT  5457  TIP3    H1 32578   0.417000   1.008000
32579         HT  5457  TIP3    H2 32579   0.417000   1.008000
32580         OT  5458  TIP3   OH2 32580  -0.834000  15.999400
32581         HT  5458  TIP3    H1 32581   0.417000   1.008000
32582         HT  5458  TIP3    H2 32582   0.417000   1.008000
32583         OT  5459  TIP3   OH2 32583  -0.834000  15.999400
32584         HT  5459  TIP3    H1 32584   0.417000   1.008000
32585         HT  5459  TIP3    H2 32585   0.417000   1.008000
32586         OT  5460  TIP3   OH2 32586  -0.834000  15.999400
32587         HT  5460  TIP3    H1 32587   0.417000   1.008000
32588         HT  5460  TIP3    H2 32588   0.417000   1.008000
32589         OT  5461  TIP3   OH2 32589  -0.834000  15.999400
32590         HT  5461  TIP3    H1 32590   0.417000   1.008000
32591         HT  5461  TIP3    H2 32591   0.417000   1.008000
32592         OT  5462  TIP3   OH2 32592  -0.834000  15.999400
32593         HT  5462  TIP3    H1 32593   0.417000   1.008000
32594         HT  5462  TIP3    H2 32594   0.417000   1.008000
32595         OT  5463  TIP3   OH2 32595  -0.834000  15.999400
32596         HT  5463  TIP3    H1 32596   0.417000   1.008000
32597         HT  5463  TIP3    H2 32597   0.417000   1.008000
32598         OT  5464  TIP3   OH2 32598  -0.834000  15.999400
32599         HT  5464  TIP3    H1 32599   0.417000   1.008000
32600         HT  5464  TIP3    H2 32600   0.417000   1.008000
32601         OT  5465  TIP3   OH2 32601  -0.834000  15.999400
32602         HT  5465  TIP3    H1 32602   0.417000   1.008000
32603         HT  5465  TIP3    H2 32603   0.417000   1.008000
32604         OT  5466  TIP3   OH2 32604  -0.834000  15.999400
32605         HT  5466  TIP3    H1 32605   0.417000   1.008000
32606         HT  5466  TIP3    H2 32606   0.417000   1.008000
32607         OT  5467  TIP3   OH2 32607  -0.834000  15.999400
32608         HT  5467  TIP3    H1 32608   0.417000   1.008000
32609         HT  5467  TIP3    H2 32609   0.417000   1.008000
32610         OT  5468  TIP3   OH2 32610  -0.834000  15.999400
32611         HT  5468  TIP3    H1 32611   0.417000   1.008000
32612         HT  5468  TIP3    H2 32612   0.417000   1.008000
32613         OT  5469  TIP3   OH2 32613  -0.834000  15.999400
32614         HT  5469  TIP3    H1 32614   0.417000   1.008000
32615         HT  5469  TIP3    H2 32615   0.417000   1.008000
32616         OT  5470  TIP3   OH2 32616  -0.834000  15.999400
32617         HT  5470  TIP3    H1 32617   0.417000   1.008000
32618         HT  5470  TIP3    H2 32618   0.417000   1.008000
32619         OT  5471  TIP3   OH2 32619  -0.834000  15.999400
32620         HT  5471  TIP3    H1 32620   0.417000   1.008000
32621         HT  5471  TIP3    H2 32621   0.417000   1.008000
32622         OT  5472  TIP3   OH2 32622  -0.834000  15.999400
32623         HT  5472  TIP3    H1 32623   0.417000   1.008000
32624         HT  5472  TIP3    H2 32624   0.417000   1.008000
32625         OT  5473  TIP3   OH2 32625  -0.834000  15.999400
32626         HT  5473  TIP3    H1 32626   0.417000   1.008000
32627         HT  5473  TIP3    H2 32627   0.417000   1.008000
32628         OT  5474  TIP3   OH2 32628  -0.834000  15.999400
32629         HT  5474  TIP3    H1 32629   0.417000   1.008000
32630         HT  5474  TIP3    H2 32630   0.417000   1.008000
32631         OT  5475  TIP3   OH2 32631  -0.834000  15.999400
32632         HT  5475  TIP3    H1 32632   0.417000   1.008000
32633         HT  5475  TIP3    H2 32633   0.417000   1.008000
32634         OT  5476  TIP3   OH2 32634  -0.834000  15.999400
32635         HT  5476  TIP3    H1 32635   0.417000   1.008000
32636         HT  5476  TIP3    H2 32636   0.417000   1.008000
32637         OT  5477  TIP3   OH2 32637  -0.834000  15.999400
32638         HT  5477  TIP3    H1 32638   0.417000   1.008000
32639         HT  5477  TIP3    H2 32639   0.417000   1.008000
32640         OT  5478  TIP3   OH2 32640  -0.834000  15.999400
32641         HT  5478  TIP3    H1 32641   0.417000   1.008000
32642         HT  5478  TIP3    H2 32642   0.417000   1.008000
32643         OT  5479  TIP3   OH2 32643  -0.834000  15.999400
32644         HT  5479  TIP3    H1 32644   0.417000   1.008000
32645         HT  5479  TIP3    H2 32645   0.417000   1.008000
32646         OT  5480  TIP3   OH2 32646  -0.834000  15.999400
32647         HT  5480  TIP3    H1 32647   0.417000   1.008000
32648         HT  5480  TIP3    H2 32648   0.417000   1.008000
32649         OT  5481  TIP3   OH2 32649  -0.834000  15.999400
32650         HT  5481  TIP3    H1 32650   0.417000   1.008000
32651         HT  5481  TIP3    H2 32651   0.417000   1.008000
32652         OT  5482  TIP3   OH2 32652  -0.834000  15.999400
32653         HT  5482  TIP3    H1 32653   0.417000   1.008000
32654         HT  5482  TIP3    H2 32654   0.417000   1.008000
32655         OT  5483  TIP3   OH2 32655  -0.834000  15.999400
32656         HT  5483  TIP3    H1 32656   0.417000   1.008000
32657         HT  5483  TIP3    H2 32657   0.417000   1.008000
32658         OT  5484  TIP3   OH2 32658  -0.834000  15.999400
32659         HT  5484  TIP3    H1 32659   0.417000   1.008000
32660         HT  5484  TIP3    H2 32660   0.417000   1.008000
32661         OT  5485  TIP3   OH2 32661  -0.834000  15.999400
32662         HT  5485  TIP3    H1 32662   0.417000   1.008000
32663         HT  5485  TIP3    H2 32663   0.417000   1.008000
32664         OT  5486  TIP3   OH2 32664  -0.834000  15.999400
32665         HT  5486  TIP3    H1 32665   0.417000   1.008000
32666         HT  5486  TIP3    H2 32666   0.417000   1.008000
32667         OT  5487  TIP3   OH2 32667  -0.834000  15.999400
32668         HT  5487  TIP3    H1 32668   0.417000   1.008000
32669         HT  5487  TIP3    H2 32669   0.417000   1.008000
32670         OT  5488  TIP3   OH2 32670  -0.834000  15.999400
32671         HT  5488  TIP3    H1 32671   0.417000   1.008000
32672         HT  5488  TIP3    H2 32672   0.417000   1.008000
32673         OT  5489  TIP3   OH2 32673  -0.834000  15.999400
32674         HT  5489  TIP3    H1 32674   0.417000   1.008000
32675         HT  5489  TIP3    H2 32675   0.417000   1.008000
32676         OT  5490  TIP3   OH2 32676  -0.834000  15.999400
32677         HT  5490  TIP3    H1 32677   0.417000   1.008000
32678         HT  5490  TIP3    H2 32678   0.417000   1.008000
32679         OT  5491  TIP3   OH2 32679  -0.834000  15.999400
32680         HT  5491  TIP3    H1 32680   0.417000   1.008000
32681         HT  5491  TIP3    H2 32681   0.417000   1.008000

[ bonds ]
    1     2     1    0.151   179912    0.151   179912
[ bonds ]
    1     6     1    0.151   179912    0.151   179912
[ bonds ]
    1    10     1    0.151   179912    0.151   179912
[ bonds ]
    1    14     1    0.151   179912    0.151   179912
[ constraints ] ; from mdp
    2     3     1    0.108    0.108
[ constraints ] ; from mdp
    2     4     1    0.108    0.108
[ constraints ] ; from mdp
    2     5     1    0.108    0.108
[ constraints ] ; from mdp
    6     7     1    0.108    0.108
[ constraints ] ; from mdp
    6     8     1    0.108    0.108
[ constraints ] ; from mdp
    6     9     1    0.108    0.108
[ constraints ] ; from mdp
   10    11     1    0.108    0.108
[ constraints ] ; from mdp
   10    12     1    0.108    0.108
[ constraints ] ; from mdp
   10    13     1    0.108    0.108
[ constraints ] ; from mdp
   14    15     1    0.108    0.108
[ constraints ] ; from mdp
   14    16     1    0.108    0.108
[ bonds ]
   14    17     1    0.153   186188    0.153   186188
[ constraints ] ; from mdp
   17    18     1   0.1111   0.1111
[ constraints ] ; from mdp
   17    19     1   0.1111   0.1111
[ bonds ]
   17    24     1    0.143   284512    0.143   284512
[ bonds ]
   20    21     1    0.148   485344    0.148   485344
[ bonds ]
   20    22     1    0.148   485344    0.148   485344
[ bonds ]
   20    23     1     0.16   225936     0.16   225936
[ bonds ]
   20    24     1     0.16   225936     0.16   225936
[ bonds ]
   23    25     1    0.143   284512    0.143   284512
[ constraints ] ; from mdp
   25    26     1   0.1111   0.1111
[ constraints ] ; from mdp
   25    27     1   0.1111   0.1111
[ bonds ]
   25    28     1   0.1538   186188   0.1538   186188
[ constraints ] ; from mdp
   28    29     1   0.1111   0.1111
[ bonds ]
   28    30     1    0.143   284512    0.143   284512
[ bonds ]
   28    36     1   0.1538   186188   0.1538   186188
[ bonds ]
   30    31     1   0.1334   125520   0.1334   125520
[ bonds ]
   31    32     1    0.122   627600    0.122   627600
[ bonds ]
   31    33     1   0.1522   167360   0.1522   167360
[ constraints ] ; from mdp
   33    34     1   0.1111   0.1111
[ constraints ] ; from mdp
   33    35     1   0.1111   0.1111
[ bonds ]
   33    45     1    0.153   186188    0.153   186188
[ constraints ] ; from mdp
   36    37     1   0.1111   0.1111
[ constraints ] ; from mdp
   36    38     1   0.1111   0.1111
[ bonds ]
   36    39     1    0.143   284512    0.143   284512
[ bonds ]
   39    40     1   0.1334   125520   0.1334   125520
[ bonds ]
   40    41     1    0.122   627600    0.122   627600
[ bonds ]
   40    42     1   0.1522   167360   0.1522   167360
[ constraints ] ; from mdp
   42    43     1   0.1111   0.1111
[ constraints ] ; from mdp
   42    44     1   0.1111   0.1111
[ bonds ]
   42    88     1    0.153   186188    0.153   186188
[ constraints ] ; from mdp
   45    46     1   0.1111   0.1111
[ constraints ] ; from mdp
   45    47     1   0.1111   0.1111
[ bonds ]
   45    48     1    0.153   186188    0.153   186188
[ constraints ] ; from mdp
   48    49     1   0.1111   0.1111
[ constraints ] ; from mdp
   48    50     1   0.1111   0.1111
[ bonds ]
   48    51     1    0.153   186188    0.153   186188
[ constraints ] ; from mdp
   51    52     1   0.1111   0.1111
[ constraints ] ; from mdp
   51    53     1   0.1111   0.1111
[ bonds ]
   51    54     1    0.153   186188    0.153   186188
[ constraints ] ; from mdp
   54    55     1   0.1111   0.1111
[ constraints ] ; from mdp
   54    56     1   0.1111   0.1111
[ bonds ]
   54    57     1    0.153   186188    0.153   186188
[ constraints ] ; from mdp
   57    58     1   0.1111   0.1111
[ constraints ] ; from mdp
   57    59     1   0.1111   0.1111
[ bonds ]
   57    60     1    0.153   186188    0.153   186188
[ constraints ] ; from mdp
   60    61     1   0.1111   0.1111
[ constraints ] ; from mdp
   60    62     1   0.1111   0.1111
[ bonds ]
   60    63     1    0.153   186188    0.153   186188
[ constraints ] ; from mdp
   63    64     1   0.1111   0.1111
[ constraints ] ; from mdp
   63    65     1   0.1111   0.1111
[ bonds ]
   63    66     1    0.153   186188    0.153   186188
[ constraints ] ; from mdp
   66    67     1   0.1111   0.1111
[ constraints ] ; from mdp
   66    68     1   0.1111   0.1111
[ bonds ]
   66    69     1    0.153   186188    0.153   186188
[ constraints ] ; from mdp
   69    70     1   0.1111   0.1111
[ constraints ] ; from mdp
   69    71     1   0.1111   0.1111
[ bonds ]
   69    72     1    0.153   186188    0.153   186188
[ constraints ] ; from mdp
   72    73     1   0.1111   0.1111
[ constraints ] ; from mdp
   72    74     1   0.1111   0.1111
[ bonds ]
   72    75     1    0.153   186188    0.153   186188
[ constraints ] ; from mdp
   75    76     1   0.1111   0.1111
[ constraints ] ; from mdp
   75    77     1   0.1111   0.1111
[ bonds ]
   75    78     1    0.153   186188    0.153   186188
[ constraints ] ; from mdp
   78    79     1   0.1111   0.1111
[ constraints ] ; from mdp
   78    80     1   0.1111   0.1111
[ bonds ]
   78    81     1    0.153   186188    0.153   186188
[ constraints ] ; from mdp
   81    82     1   0.1111   0.1111
[ constraints ] ; from mdp
   81    83     1   0.1111   0.1111
[ bonds ]
   81    84     1   0.1528   186188   0.1528   186188
[ constraints ] ; from mdp
   84    85     1   0.1111   0.1111
[ constraints ] ; from mdp
   84    86     1   0.1111   0.1111
[ constraints ] ; from mdp
   84    87     1   0.1111   0.1111
[ constraints ] ; from mdp
   88    89     1   0.1111   0.1111
[ constraints ] ; from mdp
   88    90     1   0.1111   0.1111
[ bonds ]
   88    91     1    0.153   186188    0.153   186188
[ constraints ] ; from mdp
   91    92     1   0.1111   0.1111
[ constraints ] ; from mdp
   91    93     1   0.1111   0.1111
[ bonds ]
   91    94     1    0.153   186188    0.153   186188
[ constraints ] ; from mdp
   94    95     1   0.1111   0.1111
[ constraints ] ; from mdp
   94    96     1   0.1111   0.1111
[ bonds ]
   94    97     1    0.153   186188    0.153   186188
[ constraints ] ; from mdp
   97    98     1   0.1111   0.1111
[ constraints ] ; from mdp
   97    99     1   0.1111   0.1111
[ bonds ]
   97   100     1    0.153   186188    0.153   186188
[ constraints ] ; from mdp
  100   101     1   0.1111   0.1111
[ constraints ] ; from mdp
  100   102     1   0.1111   0.1111
[ bonds ]
  100   103     1    0.153   186188    0.153   186188
[ constraints ] ; from mdp
  103   104     1   0.1111   0.1111
[ constraints ] ; from mdp
  103   105     1   0.1111   0.1111
[ bonds ]
  103   106     1    0.153   186188    0.153   186188
[ constraints ] ; from mdp
  106   107     1   0.1111   0.1111
[ constraints ] ; from mdp
  106   108     1   0.1111   0.1111
[ bonds ]
  106   109     1    0.153   186188    0.153   186188
[ constraints ] ; from mdp
  109   110     1   0.1111   0.1111
[ constraints ] ; from mdp
  109   111     1   0.1111   0.1111
[ bonds ]
  109   112     1    0.153   186188    0.153   186188
[ constraints ] ; from mdp
  112   113     1   0.1111   0.1111
[ constraints ] ; from mdp
  112   114     1   0.1111   0.1111
[ bonds ]
  112   115     1    0.153   186188    0.153   186188
[ constraints ] ; from mdp
  115   116     1   0.1111   0.1111
[ constraints ] ; from mdp
  115   117     1   0.1111   0.1111
[ bonds ]
  115   118     1    0.153   186188    0.153   186188
[ constraints ] ; from mdp
  118   119     1   0.1111   0.1111
[ constraints ] ; from mdp
  118   120     1   0.1111   0.1111
[ bonds ]
  118   121     1    0.153   186188    0.153   186188
[ constraints ] ; from mdp
  121   122     1   0.1111   0.1111
[ constraints ] ; from mdp
  121   123     1   0.1111   0.1111
[ bonds ]
  121   124     1    0.153   186188    0.153   186188
[ constraints ] ; from mdp
  124   125     1   0.1111   0.1111
[ constraints ] ; from mdp
  124   126     1   0.1111   0.1111
[ bonds ]
  124   127     1   0.1528   186188   0.1528   186188
[ constraints ] ; from mdp
  127   128     1   0.1111   0.1111
[ constraints ] ; from mdp
  127   129     1   0.1111   0.1111
[ constraints ] ; from mdp
  127   130     1   0.1111   0.1111
[ bonds ]
  131   132     1    0.151   179912    0.151   179912
[ bonds ]
  131   136     1    0.151   179912    0.151   179912
[ bonds ]
  131   140     1    0.151   179912    0.151   179912
[ bonds ]
  131   144     1    0.151   179912    0.151   179912
[ constraints ] ; from mdp
  132   133     1    0.108    0.108
[ constraints ] ; from mdp
  132   134     1    0.108    0.108
[ constraints ] ; from mdp
  132   135     1    0.108    0.108
[ constraints ] ; from mdp
  136   137     1    0.108    0.108
[ constraints ] ; from mdp
  136   138     1    0.108    0.108
[ constraints ] ; from mdp
  136   139     1    0.108    0.108
[ constraints ] ; from mdp
  140   141     1    0.108    0.108
[ constraints ] ; from mdp
  140   142     1    0.108    0.108
[ constraints ] ; from mdp
  140   143     1    0.108    0.108
[ constraints ] ; from mdp
  144   145     1    0.108    0.108
[ constraints ] ; from mdp
  144   146     1    0.108    0.108
[ bonds ]
  144   147     1    0.153   186188    0.153   186188
[ constraints ] ; from mdp
  147   148     1   0.1111   0.1111
[ constraints ] ; from mdp
  147   149     1   0.1111   0.1111
[ bonds ]
  147   154     1    0.143   284512    0.143   284512
[ bonds ]
  150   151     1    0.148   485344    0.148   485344
[ bonds ]
  150   152     1    0.148   485344    0.148   485344
[ bonds ]
  150   153     1     0.16   225936     0.16   225936
[ bonds ]
  150   154     1     0.16   225936     0.16   225936
[ bonds ]
  153   155     1    0.143   284512    0.143   284512
[ constraints ] ; from mdp
  155   156     1   0.1111   0.1111
[ constraints ] ; from mdp
  155   157     1   0.1111   0.1111
[ bonds ]
  155   158     1   0.1538   186188   0.1538   186188
[ constraints ] ; from mdp
  158   159     1   0.1111   0.1111
[ bonds ]
  158   160     1    0.143   284512    0.143   284512
[ bonds ]
  158   166     1   0.1538   186188   0.1538   186188
[ bonds ]
  160   161     1   0.1334   125520   0.1334   125520
[ bonds ]
  161   162     1    0.122   627600    0.122   627600
[ bonds ]
  161   163     1   0.1522   167360   0.1522   167360
[ constraints ] ; from mdp
  163   164     1   0.1111   0.1111
[ constraints ] ; from mdp
  163   165     1   0.1111   0.1111
[ bonds ]
  163   175     1    0.153   186188    0.153   186188
[ constraints ] ; from mdp
  166   167     1   0.1111   0.1111
[ constraints ] ; from mdp
  166   168     1   0.1111   0.1111
[ bonds ]
  166   169     1    0.143   284512    0.143   284512
[ bonds ]
  169   170     1   0.1334   125520   0.1334   125520
[ bonds ]
  170   171     1    0.122   627600    0.122   627600
[ bonds ]
  170   172     1   0.1522   167360   0.1522   167360
[ constraints ] ; from mdp
  172   173     1   0.1111   0.1111
[ constraints ] ; from mdp
  172   174     1   0.1111   0.1111
[ bonds ]
  172   218     1    0.153   186188    0.153   186188
[ constraints ] ; from mdp
  175   176     1   0.1111   0.1111
[ constraints ] ; from mdp
  175   177     1   0.1111   0.1111
[ bonds ]
  175   178     1    0.153   186188    0.153   186188
[ constraints ] ; from mdp
  178   179     1   0.1111   0.1111
[ constraints ] ; from mdp
  178   180     1   0.1111   0.1111
[ bonds ]
  178   181     1    0.153   186188    0.153   186188
[ constraints ] ; from mdp
  181   182     1   0.1111   0.1111
[ constraints ] ; from mdp
  181   183     1   0.1111   0.1111
[ bonds ]
  181   184     1    0.153   186188    0.153   186188
[ constraints ] ; from mdp
  184   185     1   0.1111   0.1111
[ constraints ] ; from mdp
  184   186     1   0.1111   0.1111
[ bonds ]
  184   187     1    0.153   186188    0.153   186188
[ constraints ] ; from mdp
  187   188     1   0.1111   0.1111
[ constraints ] ; from mdp
  187   189     1   0.1111   0.1111
[ bonds ]
  187   190     1    0.153   186188    0.153   186188
[ constraints ] ; from mdp
  190   191     1   0.1111   0.1111
[ constraints ] ; from mdp
  190   192     1   0.1111   0.1111
[ bonds ]
  190   193     1    0.153   186188    0.153   186188
[ constraints ] ; from mdp
  193   194     1   0.1111   0.1111
[ constraints ] ; from mdp
  193   195     1   0.1111   0.1111
[ bonds ]
  193   196     1    0.153   186188    0.153   186188
[ constraints ] ; from mdp
  196   197     1   0.1111   0.1111
[ constraints ] ; from mdp
  196   198     1   0.1111   0.1111
[ bonds ]
  196   199     1    0.153   186188    0.153   186188
[ constraints ] ; from mdp
  199   200     1   0.1111   0.1111
[ constraints ] ; from mdp
  199   201     1   0.1111   0.1111
[ bonds ]
  199   202     1    0.153   186188    0.153   186188
[ constraints ] ; from mdp
  202   203     1   0.1111   0.1111
[ constraints ] ; from mdp
  202   204     1   0.1111   0.1111
[ bonds ]
  202   205     1    0.153   186188    0.153   186188
[ constraints ] ; from mdp
  205   206     1   0.1111   0.1111
[ constraints ] ; from mdp
  205   207     1   0.1111   0.1111
[ bonds ]
  205   208     1    0.153   186188    0.153   186188
[ constraints ] ; from mdp
  208   209     1   0.1111   0.1111
[ constraints ] ; from mdp
  208   210     1   0.1111   0.1111
[ bonds ]
  208   211     1    0.153   186188    0.153   186188
[ constraints ] ; from mdp
  211   212     1   0.1111   0.1111
[ constraints ] ; from mdp
  211   213     1   0.1111   0.1111
[ bonds ]
  211   214     1   0.1528   186188   0.1528   186188
[ constraints ] ; from mdp
  214   215     1   0.1111   0.1111
[ constraints ] ; from mdp
  214   216     1   0.1111   0.1111
[ constraints ] ; from mdp
  214   217     1   0.1111   0.1111
[ constraints ] ; from mdp
  218   219     1   0.1111   0.1111
[ constraints ] ; from mdp
  218   220     1   0.1111   0.1111
[ bonds ]
  218   221     1    0.153   186188    0.153   186188
[ constraints ] ; from mdp
  221   222     1   0.1111   0.1111
[ constraints ] ; from mdp
  221   223     1   0.1111   0.1111
[ bonds ]
  221   224     1    0.153   186188    0.153   186188
[ constraints ] ; from mdp
  224   225     1   0.1111   0.1111
[ constraints ] ; from mdp
  224   226     1   0.1111   0.1111
[ bonds ]
  224   227     1    0.153   186188    0.153   186188
[ constraints ] ; from mdp
  227   228     1   0.1111   0.1111
[ constraints ] ; from mdp
  227   229     1   0.1111   0.1111
[ bonds ]
  227   230     1    0.153   186188    0.153   186188
[ constraints ] ; from mdp
  230   231     1   0.1111   0.1111
[ constraints ] ; from mdp
  230   232     1   0.1111   0.1111
[ bonds ]
  230   233     1    0.153   186188    0.153   186188
[ constraints ] ; from mdp
  233   234     1   0.1111   0.1111
[ constraints ] ; from mdp
  233   235     1   0.1111   0.1111
[ bonds ]
  233   236     1    0.153   186188    0.153   186188
[ constraints ] ; from mdp
  236   237     1   0.1111   0.1111
[ constraints ] ; from mdp
  236   238     1   0.1111   0.1111
[ bonds ]
  236   239     1    0.153   186188    0.153   186188
[ constraints ] ; from mdp
  239   240     1   0.1111   0.1111
[ constraints ] ; from mdp
  239   241     1   0.1111   0.1111
[ bonds ]
  239   242     1    0.153   186188    0.153   186188
[ constraints ] ; from mdp
  242   243     1   0.1111   0.1111
[ constraints ] ; from mdp
  242   244     1   0.1111   0.1111
[ bonds ]
  242   245     1    0.153   186188    0.153   186188
[ constraints ] ; from mdp
  245   246     1   0.1111   0.1111
[ constraints ] ; from mdp
  245   247     1   0.1111   0.1111
[ bonds ]
  245   248     1    0.153   186188    0.153   186188
[ constraints ] ; from mdp
  248   249     1   0.1111   0.1111
[ constraints ] ; from mdp
  248   250     1   0.1111   0.1111
[ bonds ]
  248   251     1    0.153   186188    0.153   186188
[ constraints ] ; from mdp
  251   252     1   0.1111   0.1111
[ constraints ] ; from mdp
  251   253     1   0.1111   0.1111
[ bonds ]
  251   254     1    0.153   186188    0.153   186188
[ constraints ] ; from mdp
  254   255     1   0.1111   0.1111
[ constraints ] ; from mdp
  254   256     1   0.1111   0.1111
[ bonds ]
  254   257     1   0.1528   186188   0.1528   186188
[ constraints ] ; from mdp
  257   258     1   0.1111   0.1111
[ constraints ] ; from mdp
  257   259     1   0.1111   0.1111
[ constraints ] ; from mdp
  257   260     1   0.1111   0.1111
[ bonds ]
  261   262     1    0.151   179912    0.151   179912
[ bonds ]
  261   266     1    0.151   179912    0.151   179912
[ bonds ]
  261   270     1    0.151   179912    0.151   179912
[ bonds ]
  261   274     1    0.151   179912    0.151   179912
[ constraints ] ; from mdp
  262   263     1    0.108    0.108
[ constraints ] ; from mdp
  262   264     1    0.108    0.108
[ constraints ] ; from mdp
  262   265     1    0.108    0.108
[ constraints ] ; from mdp
  266   267     1    0.108    0.108
[ constraints ] ; from mdp
  266   268     1    0.108    0.108
[ constraints ] ; from mdp
  266   269     1    0.108    0.108
[ constraints ] ; from mdp
  270   271     1    0.108    0.108
[ constraints ] ; from mdp
  270   272     1    0.108    0.108
[ constraints ] ; from mdp
  270   273     1    0.108    0.108
[ constraints ] ; from mdp
  274   275     1    0.108    0.108
[ constraints ] ; from mdp
  274   276     1    0.108    0.108
[ bonds ]
  274   277     1    0.153   186188    0.153   186188
[ constraints ] ; from mdp
  277   278     1   0.1111   0.1111
[ constraints ] ; from mdp
  277   279     1   0.1111   0.1111
[ bonds ]
  277   284     1    0.143   284512    0.143   284512
[ bonds ]
  280   281     1    0.148   485344    0.148   485344
[ bonds ]
  280   282     1    0.148   485344    0.148   485344
[ bonds ]
  280   283     1     0.16   225936     0.16   225936
[ bonds ]
  280   284     1     0.16   225936     0.16   225936
[ bonds ]
  283   285     1    0.143   284512    0.143   284512
[ constraints ] ; from mdp
  285   286     1   0.1111   0.1111
[ constraints ] ; from mdp
  285   287     1   0.1111   0.1111
[ bonds ]
  285   288     1   0.1538   186188   0.1538   186188
[ constraints ] ; from mdp
  288   289     1   0.1111   0.1111
[ bonds ]
  288   290     1    0.143   284512    0.143   284512
[ bonds ]
  288   296     1   0.1538   186188   0.1538   186188
[ bonds ]
  290   291     1   0.1334   125520   0.1334   125520
[ bonds ]
  291   292     1    0.122   627600    0.122   627600
[ bonds ]
  291   293     1   0.1522   167360   0.1522   167360
[ constraints ] ; from mdp
  293   294     1   0.1111   0.1111
[ constraints ] ; from mdp
  293   295     1   0.1111   0.1111
[ bonds ]
  293   305     1    0.153   186188    0.153   186188
[ constraints ] ; from mdp
  296   297     1   0.1111   0.1111
[ constraints ] ; from mdp
  296   298     1   0.1111   0.1111
[ bonds ]
  296   299     1    0.143   284512    0.143   284512
[ bonds ]
  299   300     1   0.1334   125520   0.1334   125520
[ bonds ]
  300   301     1    0.122   627600    0.122   627600
[ bonds ]
  300   302     1   0.1522   167360   0.1522   167360
[ constraints ] ; from mdp
  302   303     1   0.1111   0.1111
[ constraints ] ; from mdp
  302   304     1   0.1111   0.1111
[ bonds ]
  302   348     1    0.153   186188    0.153   186188
[ constraints ] ; from mdp
  305   306     1   0.1111   0.1111
[ constraints ] ; from mdp
  305   307     1   0.1111   0.1111
[ bonds ]
  305   308     1    0.153   186188    0.153   186188
[ constraints ] ; from mdp
  308   309     1   0.1111   0.1111
[ constraints ] ; from mdp
  308   310     1   0.1111   0.1111
[ bonds ]
  308   311     1    0.153   186188    0.153   186188
[ constraints ] ; from mdp
  311   312     1   0.1111   0.1111
[ constraints ] ; from mdp
  311   313     1   0.1111   0.1111
[ bonds ]
  311   314     1    0.153   186188    0.153   186188
[ constraints ] ; from mdp
  314   315     1   0.1111   0.1111
[ constraints ] ; from mdp
  314   316     1   0.1111   0.1111
[ bonds ]
  314   317     1    0.153   186188    0.153   186188
[ constraints ] ; from mdp
  317   318     1   0.1111   0.1111
[ constraints ] ; from mdp
  317   319     1   0.1111   0.1111
[ bonds ]
  317   320     1    0.153   186188    0.153   186188
[ constraints ] ; from mdp
  320   321     1   0.1111   0.1111
[ constraints ] ; from mdp
  320   322     1   0.1111   0.1111
[ bonds ]
  320   323     1    0.153   186188    0.153   186188
[ constraints ] ; from mdp
  323   324     1   0.1111   0.1111
[ constraints ] ; from mdp
  323   325     1   0.1111   0.1111
[ bonds ]
  323   326     1    0.153   186188    0.153   186188
[ constraints ] ; from mdp
  326   327     1   0.1111   0.1111
[ constraints ] ; from mdp
  326   328     1   0.1111   0.1111
[ bonds ]
  326   329     1    0.153   186188    0.153   186188
[ constraints ] ; from mdp
  329   330     1   0.1111   0.1111
[ constraints ] ; from mdp
  329   331     1   0.1111   0.1111
[ bonds ]
  329   332     1    0.153   186188    0.153   186188
[ constraints ] ; from mdp
  332   333     1   0.1111   0.1111
[ constraints ] ; from mdp
  332   334     1   0.1111   0.1111
[ bonds ]
  332   335     1    0.153   186188    0.153   186188
[ constraints ] ; from mdp
  335   336     1   0.1111   0.1111
[ constraints ] ; from mdp
  335   337     1   0.1111   0.1111
[ bonds ]
  335   338     1    0.153   186188    0.153   186188
[ constraints ] ; from mdp
  338   339     1   0.1111   0.1111
[ constraints ] ; from mdp
  338   340     1   0.1111   0.1111
[ bonds ]
  338   341     1    0.153   186188    0.153   186188
[ constraints ] ; from mdp
  341   342     1   0.1111   0.1111
[ constraints ] ; from mdp
  341   343     1   0.1111   0.1111
[ bonds ]
  341   344     1   0.1528   186188   0.1528   186188
[ constraints ] ; from mdp
  344   345     1   0.1111   0.1111
[ constraints ] ; from mdp
  344   346     1   0.1111   0.1111
[ constraints ] ; from mdp
  344   347     1   0.1111   0.1111
[ constraints ] ; from mdp
  348   349     1   0.1111   0.1111
[ constraints ] ; from mdp
  348   350     1   0.1111   0.1111
[ bonds ]
  348   351     1    0.153   186188    0.153   186188
[ constraints ] ; from mdp
  351   352     1   0.1111   0.1111
[ constraints ] ; from mdp
  351   353     1   0.1111   0.1111
[ bonds ]
  351   354     1    0.153   186188    0.153   186188
[ constraints ] ; from mdp
  354   355     1   0.1111   0.1111
[ constraints ] ; from mdp
  354   356     1   0.1111   0.1111
[ bonds ]
  354   357     1    0.153   186188    0.153   186188
[ constraints ] ; from mdp
  357   358     1   0.1111   0.1111
[ constraints ] ; from mdp
  357   359     1   0.1111   0.1111
[ bonds ]
  357   360     1    0.153   186188    0.153   186188
[ constraints ] ; from mdp
  360   361     1   0.1111   0.1111
[ constraints ] ; from mdp
  360   362     1   0.1111   0.1111
[ bonds ]
  360   363     1    0.153   186188    0.153   186188
[ constraints ] ; from mdp
  363   364     1   0.1111   0.1111
[ constraints ] ; from mdp
  363   365     1   0.1111   0.1111
[ bonds ]
  363   366     1    0.153   186188    0.153   186188
[ constraints ] ; from mdp
  366   367     1   0.1111   0.1111
[ constraints ] ; from mdp
  366   368     1   0.1111   0.1111
[ bonds ]
  366   369     1    0.153   186188    0.153   186188
[ constraints ] ; from mdp
  369   370     1   0.1111   0.1111
[ constraints ] ; from mdp
  369   371     1   0.1111   0.1111
[ bonds ]
  369   372     1    0.153   186188    0.153   186188
[ constraints ] ; from mdp
  372   373     1   0.1111   0.1111
[ constraints ] ; from mdp
  372   374     1   0.1111   0.1111
[ bonds ]
  372   375     1    0.153   186188    0.153   186188
[ constraints ] ; from mdp
  375   376     1   0.1111   0.1111
[ constraints ] ; from mdp
  375   377     1   0.1111   0.1111
[ bonds ]
  375   378     1    0.153   186188    0.153   186188
[ constraints ] ; from mdp
  378   379     1   0.1111   0.1111
[ constraints ] ; from mdp
  378   380     1   0.1111   0.1111
[ bonds ]
  378   381     1    0.153   186188    0.153   186188
[ constraints ] ; from mdp
  381   382     1   0.1111   0.1111
[ constraints ] ; from mdp
  381   383     1   0.1111   0.1111
[ bonds ]
  381   384     1    0.153   186188    0.153   186188
[ constraints ] ; from mdp
  384   385     1   0.1111   0.1111
[ constraints ] ; from mdp
  384   386     1   0.1111   0.1111
[ bonds ]
  384   387     1   0.1528   186188   0.1528   186188
[ constraints ] ; from mdp
  387   388     1   0.1111   0.1111
[ constraints ] ; from mdp
  387   389     1   0.1111   0.1111
[ constraints ] ; from mdp
  387   390     1   0.1111   0.1111
[ bonds ]
  391   392     1    0.151   179912    0.151   179912
[ bonds ]
  391   396     1    0.151   179912    0.151   179912
[ bonds ]
  391   400     1    0.151   179912    0.151   179912
[ bonds ]
  391   404     1    0.151   179912    0.151   179912
[ constraints ] ; from mdp
  392   393     1    0.108    0.108
[ constraints ] ; from mdp
  392   394     1    0.108    0.108
[ constraints ] ; from mdp
  392   395     1    0.108    0.108
[ constraints ] ; from mdp
  396   397     1    0.108    0.108
[ constraints ] ; from mdp
  396   398     1    0.108    0.108
[ constraints ] ; from mdp
  396   399     1    0.108    0.108
[ constraints ] ; from mdp
  400   401     1    0.108    0.108
[ constraints ] ; from mdp
  400   402     1    0.108    0.108
[ constraints ] ; from mdp
  400   403     1    0.108    0.108
[ constraints ] ; from mdp
  404   405     1    0.108    0.108
[ constraints ] ; from mdp
  404   406     1    0.108    0.108
[ bonds ]
  404   407     1    0.153   186188    0.153   186188
[ constraints ] ; from mdp
  407   408     1   0.1111   0.1111
[ constraints ] ; from mdp
  407   409     1   0.1111   0.1111
[ bonds ]
  407   414     1    0.143   284512    0.143   284512
[ bonds ]
  410   411     1    0.148   485344    0.148   485344
[ bonds ]
  410   412     1    0.148   485344    0.148   485344
[ bonds ]
  410   413     1     0.16   225936     0.16   225936
[ bonds ]
  410   414     1     0.16   225936     0.16   225936
[ bonds ]
  413   415     1    0.143   284512    0.143   284512
[ constraints ] ; from mdp
  415   416     1   0.1111   0.1111
[ constraints ] ; from mdp
  415   417     1   0.1111   0.1111
[ bonds ]
  415   418     1   0.1538   186188   0.1538   186188
[ constraints ] ; from mdp
  418   419     1   0.1111   0.1111
[ bonds ]
  418   420     1    0.143   284512    0.143   284512
[ bonds ]
  418   426     1   0.1538   186188   0.1538   186188
[ bonds ]
  420   421     1   0.1334   125520   0.1334   125520
[ bonds ]
  421   422     1    0.122   627600    0.122   627600
[ bonds ]
  421   423     1   0.1522   167360   0.1522   167360
[ constraints ] ; from mdp
  423   424     1   0.1111   0.1111
[ constraints ] ; from mdp
  423   425     1   0.1111   0.1111
[ bonds ]
  423   435     1    0.153   186188    0.153   186188
[ constraints ] ; from mdp
  426   427     1   0.1111   0.1111
[ constraints ] ; from mdp
  426   428     1   0.1111   0.1111
[ bonds ]
  426   429     1    0.143   284512    0.143   284512
[ bonds ]
  429   430     1   0.1334   125520   0.1334   125520
[ bonds ]
  430   431     1    0.122   627600    0.122   627600
[ bonds ]
  430   432     1   0.1522   167360   0.1522   167360
[ constraints ] ; from mdp
  432   433     1   0.1111   0.1111
[ constraints ] ; from mdp
  432   434     1   0.1111   0.1111
[ bonds ]
  432   478     1    0.153   186188    0.153   186188
[ constraints ] ; from mdp
  435   436     1   0.1111   0.1111
[ constraints ] ; from mdp
  435   437     1   0.1111   0.1111
[ bonds ]
  435   438     1    0.153   186188    0.153   186188
[ constraints ] ; from mdp
  438   439     1   0.1111   0.1111
[ constraints ] ; from mdp
  438   440     1   0.1111   0.1111
[ bonds ]
  438   441     1    0.153   186188    0.153   186188
[ constraints ] ; from mdp
  441   442     1   0.1111   0.1111
[ constraints ] ; from mdp
  441   443     1   0.1111   0.1111
[ bonds ]
  441   444     1    0.153   186188    0.153   186188
[ constraints ] ; from mdp
  444   445     1   0.1111   0.1111
[ constraints ] ; from mdp
  444   446     1   0.1111   0.1111
[ bonds ]
  444   447     1    0.153   186188    0.153   186188
[ constraints ] ; from mdp
  447   448     1   0.1111   0.1111
[ constraints ] ; from mdp
  447   449     1   0.1111   0.1111
[ bonds ]
  447   450     1    0.153   186188    0.153   186188
[ constraints ] ; from mdp
  450   451     1   0.1111   0.1111
[ constraints ] ; from mdp
  450   452     1   0.1111   0.1111
[ bonds ]
  450   453     1    0.153   186188    0.153   186188
[ constraints ] ; from mdp
  453   454     1   0.1111   0.1111
[ constraints ] ; from mdp
  453   455     1   0.1111   0.1111
[ bonds ]
  453   456     1    0.153   186188    0.153   186188
[ constraints ] ; from mdp
  456   457     1   0.1111   0.1111
[ constraints ] ; from mdp
  456   458     1   0.1111   0.1111
[ bonds ]
  456   459     1    0.153   186188    0.153   186188
[ constraints ] ; from mdp
  459   460     1   0.1111   0.1111
[ constraints ] ; from mdp
  459   461     1   0.1111   0.1111
[ bonds ]
  459   462     1    0.153   186188    0.153   186188
[ constraints ] ; from mdp
  462   463     1   0.1111   0.1111
[ constraints ] ; from mdp
  462   464     1   0.1111   0.1111
[ bonds ]
  462   465     1    0.153   186188    0.153   186188
[ constraints ] ; from mdp
  465   466     1   0.1111   0.1111
[ constraints ] ; from mdp
  465   467     1   0.1111   0.1111
[ bonds ]
  465   468     1    0.153   186188    0.153   186188
[ constraints ] ; from mdp
  468   469     1   0.1111   0.1111
[ constraints ] ; from mdp
  468   470     1   0.1111   0.1111
[ bonds ]
  468   471     1    0.153   186188    0.153   186188
[ constraints ] ; from mdp
  471   472     1   0.1111   0.1111
[ constraints ] ; from mdp
  471   473     1   0.1111   0.1111
[ bonds ]
  471   474     1   0.1528   186188   0.1528   186188
[ constraints ] ; from mdp
  474   475     1   0.1111   0.1111
[ constraints ] ; from mdp
  474   476     1   0.1111   0.1111
[ constraints ] ; from mdp
  474   477     1   0.1111   0.1111
[ constraints ] ; from mdp
  478   479     1   0.1111   0.1111
[ constraints ] ; from mdp
  478   480     1   0.1111   0.1111
[ bonds ]
  478   481     1    0.153   186188    0.153   186188
[ constraints ] ; from mdp
  481   482     1   0.1111   0.1111
[ constraints ] ; from mdp
  481   483     1   0.1111   0.1111
[ bonds ]
  481   484     1    0.153   186188    0.153   186188
[ constraints ] ; from mdp
  484   485     1   0.1111   0.1111
[ constraints ] ; from mdp
  484   486     1   0.1111   0.1111
[ bonds ]
  484   487     1    0.153   186188    0.153   186188
[ constraints ] ; from mdp
  487   488     1   0.1111   0.1111
[ constraints ] ; from mdp
  487   489     1   0.1111   0.1111
[ bonds ]
  487   490     1    0.153   186188    0.153   186188
[ constraints ] ; from mdp
  490   491     1   0.1111   0.1111
[ constraints ] ; from mdp
  490   492     1   0.1111   0.1111
[ bonds ]
  490   493     1    0.153   186188    0.153   186188
[ constraints ] ; from mdp
  493   494     1   0.1111   0.1111
[ constraints ] ; from mdp
  493   495     1   0.1111   0.1111
[ bonds ]
  493   496     1    0.153   186188    0.153   186188
[ constraints ] ; from mdp
  496   497     1   0.1111   0.1111
[ constraints ] ; from mdp
  496   498     1   0.1111   0.1111
[ bonds ]
  496   499     1    0.153   186188    0.153   186188
[ constraints ] ; from mdp
  499   500     1   0.1111   0.1111
[ constraints ] ; from mdp
  499   501     1   0.1111   0.1111
[ bonds ]
  499   502     1    0.153   186188    0.153   186188
[ constraints ] ; from mdp
  502   503     1   0.1111   0.1111
[ constraints ] ; from mdp
  502   504     1   0.1111   0.1111
[ bonds ]
  502   505     1    0.153   186188    0.153   186188
[ constraints ] ; from mdp
  505   506     1   0.1111   0.1111
[ constraints ] ; from mdp
  505   507     1   0.1111   0.1111
[ bonds ]
  505   508     1    0.153   186188    0.153   186188
[ constraints ] ; from mdp
  508   509     1   0.1111   0.1111
[ constraints ] ; from mdp
  508   510     1   0.1111   0.1111
[ bonds ]
  508   511     1    0.153   186188    0.153   186188
[ constraints ] ; from mdp
  511   512     1   0.1111   0.1111
[ constraints ] ; from mdp
  511   513     1   0.1111   0.1111
[ bonds ]
  511   514     1    0.153   186188    0.153   186188
[ constraints ] ; from mdp
  514   515     1   0.1111   0.1111
[ constraints ] ; from mdp
  514   516     1   0.1111   0.1111
[ bonds ]
  514   517     1   0.1528   186188   0.1528   186188
[ constraints ] ; from mdp
  517   518     1   0.1111   0.1111
[ constraints ] ; from mdp
  517   519     1   0.1111   0.1111
[ constraints ] ; from mdp
  517   520     1   0.1111   0.1111
[ bonds ]
  521   522     1    0.151   179912    0.151   179912
[ bonds ]
  521   526     1    0.151   179912    0.151   179912
[ bonds ]
  521   530     1    0.151   179912    0.151   179912
[ bonds ]
  521   534     1    0.151   179912    0.151   179912
[ constraints ] ; from mdp
  522   523     1    0.108    0.108
[ constraints ] ; from mdp
  522   524     1    0.108    0.108
[ constraints ] ; from mdp
  522   525     1    0.108    0.108
[ constraints ] ; from mdp
  526   527     1    0.108    0.108
[ constraints ] ; from mdp
  526   528     1    0.108    0.108
[ constraints ] ; from mdp
  526   529     1    0.108    0.108
[ constraints ] ; from mdp
  530   531     1    0.108    0.108
[ constraints ] ; from mdp
  530   532     1    0.108    0.108
[ constraints ] ; from mdp
  530   533     1    0.108    0.108
[ constraints ] ; from mdp
  534   535     1    0.108    0.108
[ constraints ] ; from mdp
  534   536     1    0.108    0.108
[ bonds ]
  534   537     1    0.153   186188    0.153   186188
[ constraints ] ; from mdp
  537   538     1   0.1111   0.1111
[ constraints ] ; from mdp
  537   539     1   0.1111   0.1111
[ bonds ]
  537   544     1    0.143   284512    0.143   284512
[ bonds ]
  540   541     1    0.148   485344    0.148   485344
[ bonds ]
  540   542     1    0.148   485344    0.148   485344
[ bonds ]
  540   543     1     0.16   225936     0.16   225936
[ bonds ]
  540   544     1     0.16   225936     0.16   225936
[ bonds ]
  543   545     1    0.143   284512    0.143   284512
[ constraints ] ; from mdp
  545   546     1   0.1111   0.1111
[ constraints ] ; from mdp
  545   547     1   0.1111   0.1111
[ bonds ]
  545   548     1   0.1538   186188   0.1538   186188
[ constraints ] ; from mdp
  548   549     1   0.1111   0.1111
[ bonds ]
  548   550     1    0.143   284512    0.143   284512
[ bonds ]
  548   556     1   0.1538   186188   0.1538   186188
[ bonds ]
  550   551     1   0.1334   125520   0.1334   125520
[ bonds ]
  551   552     1    0.122   627600    0.122   627600
[ bonds ]
  551   553     1   0.1522   167360   0.1522   167360
[ constraints ] ; from mdp
  553   554     1   0.1111   0.1111
[ constraints ] ; from mdp
  553   555     1   0.1111   0.1111
[ bonds ]
  553   565     1    0.153   186188    0.153   186188
[ constraints ] ; from mdp
  556   557     1   0.1111   0.1111
[ constraints ] ; from mdp
  556   558     1   0.1111   0.1111
[ bonds ]
  556   559     1    0.143   284512    0.143   284512
[ bonds ]
  559   560     1   0.1334   125520   0.1334   125520
[ bonds ]
  560   561     1    0.122   627600    0.122   627600
[ bonds ]
  560   562     1   0.1522   167360   0.1522   167360
[ constraints ] ; from mdp
  562   563     1   0.1111   0.1111
[ constraints ] ; from mdp
  562   564     1   0.1111   0.1111
[ bonds ]
  562   608     1    0.153   186188    0.153   186188
[ constraints ] ; from mdp
  565   566     1   0.1111   0.1111
[ constraints ] ; from mdp
  565   567     1   0.1111   0.1111
[ bonds ]
  565   568     1    0.153   186188    0.153   186188
[ constraints ] ; from mdp
  568   569     1   0.1111   0.1111
[ constraints ] ; from mdp
  568   570     1   0.1111   0.1111
[ bonds ]
  568   571     1    0.153   186188    0.153   186188
[ constraints ] ; from mdp
  571   572     1   0.1111   0.1111
[ constraints ] ; from mdp
  571   573     1   0.1111   0.1111
[ bonds ]
  571   574     1    0.153   186188    0.153   186188
[ constraints ] ; from mdp
  574   575     1   0.1111   0.1111
[ constraints ] ; from mdp
  574   576     1   0.1111   0.1111
[ bonds ]
  574   577     1    0.153   186188    0.153   186188
[ constraints ] ; from mdp
  577   578     1   0.1111   0.1111
[ constraints ] ; from mdp
  577   579     1   0.1111   0.1111
[ bonds ]
  577   580     1    0.153   186188    0.153   186188
[ constraints ] ; from mdp
  580   581     1   0.1111   0.1111
[ constraints ] ; from mdp
  580   582     1   0.1111   0.1111
[ bonds ]
  580   583     1    0.153   186188    0.153   186188
[ constraints ] ; from mdp
  583   584     1   0.1111   0.1111
[ constraints ] ; from mdp
  583   585     1   0.1111   0.1111
[ bonds ]
  583   586     1    0.153   186188    0.153   186188
[ constraints ] ; from mdp
  586   587     1   0.1111   0.1111
[ constraints ] ; from mdp
  586   588     1   0.1111   0.1111
[ bonds ]
  586   589     1    0.153   186188    0.153   186188
[ constraints ] ; from mdp
  589   590     1   0.1111   0.1111
[ constraints ] ; from mdp
  589   591     1   0.1111   0.1111
[ bonds ]
  589   592     1    0.153   186188    0.153   186188
[ constraints ] ; from mdp
  592   593     1   0.1111   0.1111
[ constraints ] ; from mdp
  592   594     1   0.1111   0.1111
[ bonds ]
  592   595     1    0.153   186188    0.153   186188
[ constraints ] ; from mdp
  595   596     1   0.1111   0.1111
[ constraints ] ; from mdp
  595   597     1   0.1111   0.1111
[ bonds ]
  595   598     1    0.153   186188    0.153   186188
[ constraints ] ; from mdp
  598   599     1   0.1111   0.1111
[ constraints ] ; from mdp
  598   600     1   0.1111   0.1111
[ bonds ]
  598   601     1    0.153   186188    0.153   186188
[ constraints ] ; from mdp
  601   602     1   0.1111   0.1111
[ constraints ] ; from mdp
  601   603     1   0.1111   0.1111
[ bonds ]
  601   604     1   0.1528   186188   0.1528   186188
[ constraints ] ; from mdp
  604   605     1   0.1111   0.1111
[ constraints ] ; from mdp
  604   606     1   0.1111   0.1111
[ constraints ] ; from mdp
  604   607     1   0.1111   0.1111
[ constraints ] ; from mdp
  608   609     1   0.1111   0.1111
[ constraints ] ; from mdp
  608   610     1   0.1111   0.1111
[ bonds ]
  608   611     1    0.153   186188    0.153   186188
[ constraints ] ; from mdp
  611   612     1   0.1111   0.1111
[ constraints ] ; from mdp
  611   613     1   0.1111   0.1111
[ bonds ]
  611   614     1    0.153   186188    0.153   186188
[ constraints ] ; from mdp
  614   615     1   0.1111   0.1111
[ constraints ] ; from mdp
  614   616     1   0.1111   0.1111
[ bonds ]
  614   617     1    0.153   186188    0.153   186188
[ constraints ] ; from mdp
  617   618     1   0.1111   0.1111
[ constraints ] ; from mdp
  617   619     1   0.1111   0.1111
[ bonds ]
  617   620     1    0.153   186188    0.153   186188
[ constraints ] ; from mdp
  620   621     1   0.1111   0.1111
[ constraints ] ; from mdp
  620   622     1   0.1111   0.1111
[ bonds ]
  620   623     1    0.153   186188    0.153   186188
[ constraints ] ; from mdp
  623   624     1   0.1111   0.1111
[ constraints ] ; from mdp
  623   625     1   0.1111   0.1111
[ bonds ]
  623   626     1    0.153   186188    0.153   186188
[ constraints ] ; from mdp
  626   627     1   0.1111   0.1111
[ constraints ] ; from mdp
  626   628     1   0.1111   0.1111
[ bonds ]
  626   629     1    0.153   186188    0.153   186188
[ constraints ] ; from mdp
  629   630     1   0.1111   0.1111
[ constraints ] ; from mdp
  629   631     1   0.1111   0.1111
[ bonds ]
  629   632     1    0.153   186188    0.153   186188
[ constraints ] ; from mdp
  632   633     1   0.1111   0.1111
[ constraints ] ; from mdp
  632   634     1   0.1111   0.1111
[ bonds ]
  632   635     1    0.153   186188    0.153   186188
[ constraints ] ; from mdp
  635   636     1   0.1111   0.1111
[ constraints ] ; from mdp
  635   637     1   0.1111   0.1111
[ bonds ]
  635   638     1    0.153   186188    0.153   186188
[ constraints ] ; from mdp
  638   639     1   0.1111   0.1111
[ constraints ] ; from mdp
  638   640     1   0.1111   0.1111
[ bonds ]
  638   641     1    0.153   186188    0.153   186188
[ constraints ] ; from mdp
  641   642     1   0.1111   0.1111
[ constraints ] ; from mdp
  641   643     1   0.1111   0.1111
[ bonds ]
  641   644     1    0.153   186188    0.153   186188
[ constraints ] ; from mdp
  644   645     1   0.1111   0.1111
[ constraints ] ; from mdp
  644   646     1   0.1111   0.1111
[ bonds ]
  644   647     1   0.1528   186188   0.1528   186188
[ constraints ] ; from mdp
  647   648     1   0.1111   0.1111
[ constraints ] ; from mdp
  647   649     1   0.1111   0.1111
[ constraints ] ; from mdp
  647   650     1   0.1111   0.1111
[ bonds ]
  651   652     1    0.151   179912    0.151   179912
[ bonds ]
  651   656     1    0.151   179912    0.151   179912
[ bonds ]
  651   660     1    0.151   179912    0.151   179912
[ bonds ]
  651   664     1    0.151   179912    0.151   179912
[ constraints ] ; from mdp
  652   653     1    0.108    0.108
[ constraints ] ; from mdp
  652   654     1    0.108    0.108
[ constraints ] ; from mdp
  652   655     1    0.108    0.108
[ constraints ] ; from mdp
  656   657     1    0.108    0.108
[ constraints ] ; from mdp
  656   658     1    0.108    0.108
[ constraints ] ; from mdp
  656   659     1    0.108    0.108
[ constraints ] ; from mdp
  660   661     1    0.108    0.108
[ constraints ] ; from mdp
  660   662     1    0.108    0.108
[ constraints ] ; from mdp
  660   663     1    0.108    0.108
[ constraints ] ; from mdp
  664   665     1    0.108    0.108
[ constraints ] ; from mdp
  664   666     1    0.108    0.108
[ bonds ]
  664   667     1    0.153   186188    0.153   186188
[ constraints ] ; from mdp
  667   668     1   0.1111   0.1111
[ constraints ] ; from mdp
  667   669     1   0.1111   0.1111
[ bonds ]
  667   674     1    0.143   284512    0.143   284512
[ bonds ]
  670   671     1    0.148   485344    0.148   485344
[ bonds ]
  670   672     1    0.148   485344    0.148   485344
[ bonds ]
  670   673     1     0.16   225936     0.16   225936
[ bonds ]
  670   674     1     0.16   225936     0.16   225936
[ bonds ]
  673   675     1    0.143   284512    0.143   284512
[ constraints ] ; from mdp
  675   676     1   0.1111   0.1111
[ constraints ] ; from mdp
  675   677     1   0.1111   0.1111
[ bonds ]
  675   678     1   0.1538   186188   0.1538   186188
[ constraints ] ; from mdp
  678   679     1   0.1111   0.1111
[ bonds ]
  678   680     1    0.143   284512    0.143   284512
[ bonds ]
  678   686     1   0.1538   186188   0.1538   186188
[ bonds ]
  680   681     1   0.1334   125520   0.1334   125520
[ bonds ]
  681   682     1    0.122   627600    0.122   627600
[ bonds ]
  681   683     1   0.1522   167360   0.1522   167360
[ constraints ] ; from mdp
  683   684     1   0.1111   0.1111
[ constraints ] ; from mdp
  683   685     1   0.1111   0.1111
[ bonds ]
  683   695     1    0.153   186188    0.153   186188
[ constraints ] ; from mdp
  686   687     1   0.1111   0.1111
[ constraints ] ; from mdp
  686   688     1   0.1111   0.1111
[ bonds ]
  686   689     1    0.143   284512    0.143   284512
[ bonds ]
  689   690     1   0.1334   125520   0.1334   125520
[ bonds ]
  690   691     1    0.122   627600    0.122   627600
[ bonds ]
  690   692     1   0.1522   167360   0.1522   167360
[ constraints ] ; from mdp
  692   693     1   0.1111   0.1111
[ constraints ] ; from mdp
  692   694     1   0.1111   0.1111
[ bonds ]
  692   738     1    0.153   186188    0.153   186188
[ constraints ] ; from mdp
  695   696     1   0.1111   0.1111
[ constraints ] ; from mdp
  695   697     1   0.1111   0.1111
[ bonds ]
  695   698     1    0.153   186188    0.153   186188
[ constraints ] ; from mdp
  698   699     1   0.1111   0.1111
[ constraints ] ; from mdp
  698   700     1   0.1111   0.1111
[ bonds ]
  698   701     1    0.153   186188    0.153   186188
[ constraints ] ; from mdp
  701   702     1   0.1111   0.1111
[ constraints ] ; from mdp
  701   703     1   0.1111   0.1111
[ bonds ]
  701   704     1    0.153   186188    0.153   186188
[ constraints ] ; from mdp
  704   705     1   0.1111   0.1111
[ constraints ] ; from mdp
  704   706     1   0.1111   0.1111
[ bonds ]
  704   707     1    0.153   186188    0.153   186188
[ constraints ] ; from mdp
  707   708     1   0.1111   0.1111
[ constraints ] ; from mdp
  707   709     1   0.1111   0.1111
[ bonds ]
  707   710     1    0.153   186188    0.153   186188
[ constraints ] ; from mdp
  710   711     1   0.1111   0.1111
[ constraints ] ; from mdp
  710   712     1   0.1111   0.1111
[ bonds ]
  710   713     1    0.153   186188    0.153   186188
[ constraints ] ; from mdp
  713   714     1   0.1111   0.1111
[ constraints ] ; from mdp
  713   715     1   0.1111   0.1111
[ bonds ]
  713   716     1    0.153   186188    0.153   186188
[ constraints ] ; from mdp
  716   717     1   0.1111   0.1111
[ constraints ] ; from mdp
  716   718     1   0.1111   0.1111
[ bonds ]
  716   719     1    0.153   186188    0.153   186188
[ constraints ] ; from mdp
  719   720     1   0.1111   0.1111
[ constraints ] ; from mdp
  719   721     1   0.1111   0.1111
[ bonds ]
  719   722     1    0.153   186188    0.153   186188
[ constraints ] ; from mdp
  722   723     1   0.1111   0.1111
[ constraints ] ; from mdp
  722   724     1   0.1111   0.1111
[ bonds ]
  722   725     1    0.153   186188    0.153   186188
[ constraints ] ; from mdp
  725   726     1   0.1111   0.1111
[ constraints ] ; from mdp
  725   727     1   0.1111   0.1111
[ bonds ]
  725   728     1    0.153   186188    0.153   186188
[ constraints ] ; from mdp
  728   729     1   0.1111   0.1111
[ constraints ] ; from mdp
  728   730     1   0.1111   0.1111
[ bonds ]
  728   731     1    0.153   186188    0.153   186188
[ constraints ] ; from mdp
  731   732     1   0.1111   0.1111
[ constraints ] ; from mdp
  731   733     1   0.1111   0.1111
[ bonds ]
  731   734     1   0.1528   186188   0.1528   186188
[ constraints ] ; from mdp
  734   735     1   0.1111   0.1111
[ constraints ] ; from mdp
  734   736     1   0.1111   0.1111
[ constraints ] ; from mdp
  734   737     1   0.1111   0.1111
[ constraints ] ; from mdp
  738   739     1   0.1111   0.1111
[ constraints ] ; from mdp
  738   740     1   0.1111   0.1111
[ bonds ]
  738   741     1    0.153   186188    0.153   186188
[ constraints ] ; from mdp
  741   742     1   0.1111   0.1111
[ constraints ] ; from mdp
  741   743     1   0.1111   0.1111
[ bonds ]
  741   744     1    0.153   186188    0.153   186188
[ constraints ] ; from mdp
  744   745     1   0.1111   0.1111
[ constraints ] ; from mdp
  744   746     1   0.1111   0.1111
[ bonds ]
  744   747     1    0.153   186188    0.153   186188
[ constraints ] ; from mdp
  747   748     1   0.1111   0.1111
[ constraints ] ; from mdp
  747   749     1   0.1111   0.1111
[ bonds ]
  747   750     1    0.153   186188    0.153   186188
[ constraints ] ; from mdp
  750   751     1   0.1111   0.1111
[ constraints ] ; from mdp
  750   752     1   0.1111   0.1111
[ bonds ]
  750   753     1    0.153   186188    0.153   186188
[ constraints ] ; from mdp
  753   754     1   0.1111   0.1111
[ constraints ] ; from mdp
  753   755     1   0.1111   0.1111
[ bonds ]
  753   756     1    0.153   186188    0.153   186188
[ constraints ] ; from mdp
  756   757     1   0.1111   0.1111
[ constraints ] ; from mdp
  756   758     1   0.1111   0.1111
[ bonds ]
  756   759     1    0.153   186188    0.153   186188
[ constraints ] ; from mdp
  759   760     1   0.1111   0.1111
[ constraints ] ; from mdp
  759   761     1   0.1111   0.1111
[ bonds ]
  759   762     1    0.153   186188    0.153   186188
[ constraints ] ; from mdp
  762   763     1   0.1111   0.1111
[ constraints ] ; from mdp
  762   764     1   0.1111   0.1111
[ bonds ]
  762   765     1    0.153   186188    0.153   186188
[ constraints ] ; from mdp
  765   766     1   0.1111   0.1111
[ constraints ] ; from mdp
  765   767     1   0.1111   0.1111
[ bonds ]
  765   768     1    0.153   186188    0.153   186188
[ constraints ] ; from mdp
  768   769     1   0.1111   0.1111
[ constraints ] ; from mdp
  768   770     1   0.1111   0.1111
[ bonds ]
  768   771     1    0.153   186188    0.153   186188
[ constraints ] ; from mdp
  771   772     1   0.1111   0.1111
[ constraints ] ; from mdp
  771   773     1   0.1111   0.1111
[ bonds ]
  771   774     1    0.153   186188    0.153   186188
[ constraints ] ; from mdp
  774   775     1   0.1111   0.1111
[ constraints ] ; from mdp
  774   776     1   0.1111   0.1111
[ bonds ]
  774   777     1   0.1528   186188   0.1528   186188
[ constraints ] ; from mdp
  777   778     1   0.1111   0.1111
[ constraints ] ; from mdp
  777   779     1   0.1111   0.1111
[ constraints ] ; from mdp
  777   780     1   0.1111   0.1111
[ bonds ]
  781   782     1    0.151   179912    0.151   179912
[ bonds ]
  781   786     1    0.151   179912    0.151   179912
[ bonds ]
  781   790     1    0.151   179912    0.151   179912
[ bonds ]
  781   794     1    0.151   179912    0.151   179912
[ constraints ] ; from mdp
  782   783     1    0.108    0.108
[ constraints ] ; from mdp
  782   784     1    0.108    0.108
[ constraints ] ; from mdp
  782   785     1    0.108    0.108
[ constraints ] ; from mdp
  786   787     1    0.108    0.108
[ constraints ] ; from mdp
  786   788     1    0.108    0.108
[ constraints ] ; from mdp
  786   789     1    0.108    0.108
[ constraints ] ; from mdp
  790   791     1    0.108    0.108
[ constraints ] ; from mdp
  790   792     1    0.108    0.108
[ constraints ] ; from mdp
  790   793     1    0.108    0.108
[ constraints ] ; from mdp
  794   795     1    0.108    0.108
[ constraints ] ; from mdp
  794   796     1    0.108    0.108
[ bonds ]
  794   797     1    0.153   186188    0.153   186188
[ constraints ] ; from mdp
  797   798     1   0.1111   0.1111
[ constraints ] ; from mdp
  797   799     1   0.1111   0.1111
[ bonds ]
  797   804     1    0.143   284512    0.143   284512
[ bonds ]
  800   801     1    0.148   485344    0.148   485344
[ bonds ]
  800   802     1    0.148   485344    0.148   485344
[ bonds ]
  800   803     1     0.16   225936     0.16   225936
[ bonds ]
  800   804     1     0.16   225936     0.16   225936
[ bonds ]
  803   805     1    0.143   284512    0.143   284512
[ constraints ] ; from mdp
  805   806     1   0.1111   0.1111
[ constraints ] ; from mdp
  805   807     1   0.1111   0.1111
[ bonds ]
  805   808     1   0.1538   186188   0.1538   186188
[ constraints ] ; from mdp
  808   809     1   0.1111   0.1111
[ bonds ]
  808   810     1    0.143   284512    0.143   284512
[ bonds ]
  808   816     1   0.1538   186188   0.1538   186188
[ bonds ]
  810   811     1   0.1334   125520   0.1334   125520
[ bonds ]
  811   812     1    0.122   627600    0.122   627600
[ bonds ]
  811   813     1   0.1522   167360   0.1522   167360
[ constraints ] ; from mdp
  813   814     1   0.1111   0.1111
[ constraints ] ; from mdp
  813   815     1   0.1111   0.1111
[ bonds ]
  813   825     1    0.153   186188    0.153   186188
[ constraints ] ; from mdp
  816   817     1   0.1111   0.1111
[ constraints ] ; from mdp
  816   818     1   0.1111   0.1111
[ bonds ]
  816   819     1    0.143   284512    0.143   284512
[ bonds ]
  819   820     1   0.1334   125520   0.1334   125520
[ bonds ]
  820   821     1    0.122   627600    0.122   627600
[ bonds ]
  820   822     1   0.1522   167360   0.1522   167360
[ constraints ] ; from mdp
  822   823     1   0.1111   0.1111
[ constraints ] ; from mdp
  822   824     1   0.1111   0.1111
[ bonds ]
  822   868     1    0.153   186188    0.153   186188
[ constraints ] ; from mdp
  825   826     1   0.1111   0.1111
[ constraints ] ; from mdp
  825   827     1   0.1111   0.1111
[ bonds ]
  825   828     1    0.153   186188    0.153   186188
[ constraints ] ; from mdp
  828   829     1   0.1111   0.1111
[ constraints ] ; from mdp
  828   830     1   0.1111   0.1111
[ bonds ]
  828   831     1    0.153   186188    0.153   186188
[ constraints ] ; from mdp
  831   832     1   0.1111   0.1111
[ constraints ] ; from mdp
  831   833     1   0.1111   0.1111
[ bonds ]
  831   834     1    0.153   186188    0.153   186188
[ constraints ] ; from mdp
  834   835     1   0.1111   0.1111
[ constraints ] ; from mdp
  834   836     1   0.1111   0.1111
[ bonds ]
  834   837     1    0.153   186188    0.153   186188
[ constraints ] ; from mdp
  837   838     1   0.1111   0.1111
[ constraints ] ; from mdp
  837   839     1   0.1111   0.1111
[ bonds ]
  837   840     1    0.153   186188    0.153   186188
[ constraints ] ; from mdp
  840   841     1   0.1111   0.1111
[ constraints ] ; from mdp
  840   842     1   0.1111   0.1111
[ bonds ]
  840   843     1    0.153   186188    0.153   186188
[ constraints ] ; from mdp
  843   844     1   0.1111   0.1111
[ constraints ] ; from mdp
  843   845     1   0.1111   0.1111
[ bonds ]
  843   846     1    0.153   186188    0.153   186188
[ constraints ] ; from mdp
  846   847     1   0.1111   0.1111
[ constraints ] ; from mdp
  846   848     1   0.1111   0.1111
[ bonds ]
  846   849     1    0.153   186188    0.153   186188
[ constraints ] ; from mdp
  849   850     1   0.1111   0.1111
[ constraints ] ; from mdp
  849   851     1   0.1111   0.1111
[ bonds ]
  849   852     1    0.153   186188    0.153   186188
[ constraints ] ; from mdp
  852   853     1   0.1111   0.1111
[ constraints ] ; from mdp
  852   854     1   0.1111   0.1111
[ bonds ]
  852   855     1    0.153   186188    0.153   186188
[ constraints ] ; from mdp
  855   856     1   0.1111   0.1111
[ constraints ] ; from mdp
  855   857     1   0.1111   0.1111
[ bonds ]
  855   858     1    0.153   186188    0.153   186188
[ constraints ] ; from mdp
  858   859     1   0.1111   0.1111
[ constraints ] ; from mdp
  858   860     1   0.1111   0.1111
[ bonds ]
  858   861     1    0.153   186188    0.153   186188
[ constraints ] ; from mdp
  861   862     1   0.1111   0.1111
[ constraints ] ; from mdp
  861   863     1   0.1111   0.1111
[ bonds ]
  861   864     1   0.1528   186188   0.1528   186188
[ constraints ] ; from mdp
  864   865     1   0.1111   0.1111
[ constraints ] ; from mdp
  864   866     1   0.1111   0.1111
[ constraints ] ; from mdp
  864   867     1   0.1111   0.1111
[ constraints ] ; from mdp
  868   869     1   0.1111   0.1111
[ constraints ] ; from mdp
  868   870     1   0.1111   0.1111
[ bonds ]
  868   871     1    0.153   186188    0.153   186188
[ constraints ] ; from mdp
  871   872     1   0.1111   0.1111
[ constraints ] ; from mdp
  871   873     1   0.1111   0.1111
[ bonds ]
  871   874     1    0.153   186188    0.153   186188
[ constraints ] ; from mdp
  874   875     1   0.1111   0.1111
[ constraints ] ; from mdp
  874   876     1   0.1111   0.1111
[ bonds ]
  874   877     1    0.153   186188    0.153   186188
[ constraints ] ; from mdp
  877   878     1   0.1111   0.1111
[ constraints ] ; from mdp
  877   879     1   0.1111   0.1111
[ bonds ]
  877   880     1    0.153   186188    0.153   186188
[ constraints ] ; from mdp
  880   881     1   0.1111   0.1111
[ constraints ] ; from mdp
  880   882     1   0.1111   0.1111
[ bonds ]
  880   883     1    0.153   186188    0.153   186188
[ constraints ] ; from mdp
  883   884     1   0.1111   0.1111
[ constraints ] ; from mdp
  883   885     1   0.1111   0.1111
[ bonds ]
  883   886     1    0.153   186188    0.153   186188
[ constraints ] ; from mdp
  886   887     1   0.1111   0.1111
[ constraints ] ; from mdp
  886   888     1   0.1111   0.1111
[ bonds ]
  886   889     1    0.153   186188    0.153   186188
[ constraints ] ; from mdp
  889   890     1   0.1111   0.1111
[ constraints ] ; from mdp
  889   891     1   0.1111   0.1111
[ bonds ]
  889   892     1    0.153   186188    0.153   186188
[ constraints ] ; from mdp
  892   893     1   0.1111   0.1111
[ constraints ] ; from mdp
  892   894     1   0.1111   0.1111
[ bonds ]
  892   895     1    0.153   186188    0.153   186188
[ constraints ] ; from mdp
  895   896     1   0.1111   0.1111
[ constraints ] ; from mdp
  895   897     1   0.1111   0.1111
[ bonds ]
  895   898     1    0.153   186188    0.153   186188
[ constraints ] ; from mdp
  898   899     1   0.1111   0.1111
[ constraints ] ; from mdp
  898   900     1   0.1111   0.1111
[ bonds ]
  898   901     1    0.153   186188    0.153   186188
[ constraints ] ; from mdp
  901   902     1   0.1111   0.1111
[ constraints ] ; from mdp
  901   903     1   0.1111   0.1111
[ bonds ]
  901   904     1    0.153   186188    0.153   186188
[ constraints ] ; from mdp
  904   905     1   0.1111   0.1111
[ constraints ] ; from mdp
  904   906     1   0.1111   0.1111
[ bonds ]
  904   907     1   0.1528   186188   0.1528   186188
[ constraints ] ; from mdp
  907   908     1   0.1111   0.1111
[ constraints ] ; from mdp
  907   909     1   0.1111   0.1111
[ constraints ] ; from mdp
  907   910     1   0.1111   0.1111
[ bonds ]
  911   912     1    0.151   179912    0.151   179912
[ bonds ]
  911   916     1    0.151   179912    0.151   179912
[ bonds ]
  911   920     1    0.151   179912    0.151   179912
[ bonds ]
  911   924     1    0.151   179912    0.151   179912
[ constraints ] ; from mdp
  912   913     1    0.108    0.108
[ constraints ] ; from mdp
  912   914     1    0.108    0.108
[ constraints ] ; from mdp
  912   915     1    0.108    0.108
[ constraints ] ; from mdp
  916   917     1    0.108    0.108
[ constraints ] ; from mdp
  916   918     1    0.108    0.108
[ constraints ] ; from mdp
  916   919     1    0.108    0.108
[ constraints ] ; from mdp
  920   921     1    0.108    0.108
[ constraints ] ; from mdp
  920   922     1    0.108    0.108
[ constraints ] ; from mdp
  920   923     1    0.108    0.108
[ constraints ] ; from mdp
  924   925     1    0.108    0.108
[ constraints ] ; from mdp
  924   926     1    0.108    0.108
[ bonds ]
  924   927     1    0.153   186188    0.153   186188
[ constraints ] ; from mdp
  927   928     1   0.1111   0.1111
[ constraints ] ; from mdp
  927   929     1   0.1111   0.1111
[ bonds ]
  927   934     1    0.143   284512    0.143   284512
[ bonds ]
  930   931     1    0.148   485344    0.148   485344
[ bonds ]
  930   932     1    0.148   485344    0.148   485344
[ bonds ]
  930   933     1     0.16   225936     0.16   225936
[ bonds ]
  930   934     1     0.16   225936     0.16   225936
[ bonds ]
  933   935     1    0.143   284512    0.143   284512
[ constraints ] ; from mdp
  935   936     1   0.1111   0.1111
[ constraints ] ; from mdp
  935   937     1   0.1111   0.1111
[ bonds ]
  935   938     1   0.1538   186188   0.1538   186188
[ constraints ] ; from mdp
  938   939     1   0.1111   0.1111
[ bonds ]
  938   940     1    0.143   284512    0.143   284512
[ bonds ]
  938   946     1   0.1538   186188   0.1538   186188
[ bonds ]
  940   941     1   0.1334   125520   0.1334   125520
[ bonds ]
  941   942     1    0.122   627600    0.122   627600
[ bonds ]
  941   943     1   0.1522   167360   0.1522   167360
[ constraints ] ; from mdp
  943   944     1   0.1111   0.1111
[ constraints ] ; from mdp
  943   945     1   0.1111   0.1111
[ bonds ]
  943   955     1    0.153   186188    0.153   186188
[ constraints ] ; from mdp
  946   947     1   0.1111   0.1111
[ constraints ] ; from mdp
  946   948     1   0.1111   0.1111
[ bonds ]
  946   949     1    0.143   284512    0.143   284512
[ bonds ]
  949   950     1   0.1334   125520   0.1334   125520
[ bonds ]
  950   951     1    0.122   627600    0.122   627600
[ bonds ]
  950   952     1   0.1522   167360   0.1522   167360
[ constraints ] ; from mdp
  952   953     1   0.1111   0.1111
[ constraints ] ; from mdp
  952   954     1   0.1111   0.1111
[ bonds ]
  952   998     1    0.153   186188    0.153   186188
[ constraints ] ; from mdp
  955   956     1   0.1111   0.1111
[ constraints ] ; from mdp
  955   957     1   0.1111   0.1111
[ bonds ]
  955   958     1    0.153   186188    0.153   186188
[ constraints ] ; from mdp
  958   959     1   0.1111   0.1111
[ constraints ] ; from mdp
  958   960     1   0.1111   0.1111
[ bonds ]
  958   961     1    0.153   186188    0.153   186188
[ constraints ] ; from mdp
  961   962     1   0.1111   0.1111
[ constraints ] ; from mdp
  961   963     1   0.1111   0.1111
[ bonds ]
  961   964     1    0.153   186188    0.153   186188
[ constraints ] ; from mdp
  964   965     1   0.1111   0.1111
[ constraints ] ; from mdp
  964   966     1   0.1111   0.1111
[ bonds ]
  964   967     1    0.153   186188    0.153   186188
[ constraints ] ; from mdp
  967   968     1   0.1111   0.1111
[ constraints ] ; from mdp
  967   969     1   0.1111   0.1111
[ bonds ]
  967   970     1    0.153   186188    0.153   186188
[ constraints ] ; from mdp
  970   971     1   0.1111   0.1111
[ constraints ] ; from mdp
  970   972     1   0.1111   0.1111
[ bonds ]
  970   973     1    0.153   186188    0.153   186188
[ constraints ] ; from mdp
  973   974     1   0.1111   0.1111
[ constraints ] ; from mdp
  973   975     1   0.1111   0.1111
[ bonds ]
  973   976     1    0.153   186188    0.153   186188
[ constraints ] ; from mdp
  976   977     1   0.1111   0.1111
[ constraints ] ; from mdp
  976   978     1   0.1111   0.1111
[ bonds ]
  976   979     1    0.153   186188    0.153   186188
[ constraints ] ; from mdp
  979   980     1   0.1111   0.1111
[ constraints ] ; from mdp
  979   981     1   0.1111   0.1111
[ bonds ]
  979   982     1    0.153   186188    0.153   186188
[ constraints ] ; from mdp
  982   983     1   0.1111   0.1111
[ constraints ] ; from mdp
  982   984     1   0.1111   0.1111
[ bonds ]
  982   985     1    0.153   186188    0.153   186188
[ constraints ] ; from mdp
  985   986     1   0.1111   0.1111
[ constraints ] ; from mdp
  985   987     1   0.1111   0.1111
[ bonds ]
  985   988     1    0.153   186188    0.153   186188
[ constraints ] ; from mdp
  988   989     1   0.1111   0.1111
[ constraints ] ; from mdp
  988   990     1   0.1111   0.1111
[ bonds ]
  988   991     1    0.153   186188    0.153   186188
[ constraints ] ; from mdp
  991   992     1   0.1111   0.1111
[ constraints ] ; from mdp
  991   993     1   0.1111   0.1111
[ bonds ]
  991   994     1   0.1528   186188   0.1528   186188
[ constraints ] ; from mdp
  994   995     1   0.1111   0.1111
[ constraints ] ; from mdp
  994   996     1   0.1111   0.1111
[ constraints ] ; from mdp
  994   997     1   0.1111   0.1111
[ constraints ] ; from mdp
  998   999     1   0.1111   0.1111
[ constraints ] ; from mdp
  998  1000     1   0.1111   0.1111
[ bonds ]
  998  1001     1    0.153   186188    0.153   186188
[ constraints ] ; from mdp
 1001  1002     1   0.1111   0.1111
[ constraints ] ; from mdp
 1001  1003     1   0.1111   0.1111
[ bonds ]
 1001  1004     1    0.153   186188    0.153   186188
[ constraints ] ; from mdp
 1004  1005     1   0.1111   0.1111
[ constraints ] ; from mdp
 1004  1006     1   0.1111   0.1111
[ bonds ]
 1004  1007     1    0.153   186188    0.153   186188
[ constraints ] ; from mdp
 1007  1008     1   0.1111   0.1111
[ constraints ] ; from mdp
 1007  1009     1   0.1111   0.1111
[ bonds ]
 1007  1010     1    0.153   186188    0.153   186188
[ constraints ] ; from mdp
 1010  1011     1   0.1111   0.1111
[ constraints ] ; from mdp
 1010  1012     1   0.1111   0.1111
[ bonds ]
 1010  1013     1    0.153   186188    0.153   186188
[ constraints ] ; from mdp
 1013  1014     1   0.1111   0.1111
[ constraints ] ; from mdp
 1013  1015     1   0.1111   0.1111
[ bonds ]
 1013  1016     1    0.153   186188    0.153   186188
[ constraints ] ; from mdp
 1016  1017     1   0.1111   0.1111
[ constraints ] ; from mdp
 1016  1018     1   0.1111   0.1111
[ bonds ]
 1016  1019     1    0.153   186188    0.153   186188
[ constraints ] ; from mdp
 1019  1020     1   0.1111   0.1111
[ constraints ] ; from mdp
 1019  1021     1   0.1111   0.1111
[ bonds ]
 1019  1022     1    0.153   186188    0.153   186188
[ constraints ] ; from mdp
 1022  1023     1   0.1111   0.1111
[ constraints ] ; from mdp
 1022  1024     1   0.1111   0.1111
[ bonds ]
 1022  1025     1    0.153   186188    0.153   186188
[ constraints ] ; from mdp
 1025  1026     1   0.1111   0.1111
[ constraints ] ; from mdp
 1025  1027     1   0.1111   0.1111
[ bonds ]
 1025  1028     1    0.153   186188    0.153   186188
[ constraints ] ; from mdp
 1028  1029     1   0.1111   0.1111
[ constraints ] ; from mdp
 1028  1030     1   0.1111   0.1111
[ bonds ]
 1028  1031     1    0.153   186188    0.153   186188
[ constraints ] ; from mdp
 1031  1032     1   0.1111   0.1111
[ constraints ] ; from mdp
 1031  1033     1   0.1111   0.1111
[ bonds ]
 1031  1034     1    0.153   186188    0.153   186188
[ constraints ] ; from mdp
 1034  1035     1   0.1111   0.1111
[ constraints ] ; from mdp
 1034  1036     1   0.1111   0.1111
[ bonds ]
 1034  1037     1   0.1528   186188   0.1528   186188
[ constraints ] ; from mdp
 1037  1038     1   0.1111   0.1111
[ constraints ] ; from mdp
 1037  1039     1   0.1111   0.1111
[ constraints ] ; from mdp
 1037  1040     1   0.1111   0.1111
[ bonds ]
 1041  1042     1    0.151   179912    0.151   179912
[ bonds ]
 1041  1046     1    0.151   179912    0.151   179912
[ bonds ]
 1041  1050     1    0.151   179912    0.151   179912
[ bonds ]
 1041  1054     1    0.151   179912    0.151   179912
[ constraints ] ; from mdp
 1042  1043     1    0.108    0.108
[ constraints ] ; from mdp
 1042  1044     1    0.108    0.108
[ constraints ] ; from mdp
 1042  1045     1    0.108    0.108
[ constraints ] ; from mdp
 1046  1047     1    0.108    0.108
[ constraints ] ; from mdp
 1046  1048     1    0.108    0.108
[ constraints ] ; from mdp
 1046  1049     1    0.108    0.108
[ constraints ] ; from mdp
 1050  1051     1    0.108    0.108
[ constraints ] ; from mdp
 1050  1052     1    0.108    0.108
[ constraints ] ; from mdp
 1050  1053     1    0.108    0.108
[ constraints ] ; from mdp
 1054  1055     1    0.108    0.108
[ constraints ] ; from mdp
 1054  1056     1    0.108    0.108
[ bonds ]
 1054  1057     1    0.153   186188    0.153   186188
[ constraints ] ; from mdp
 1057  1058     1   0.1111   0.1111
[ constraints ] ; from mdp
 1057  1059     1   0.1111   0.1111
[ bonds ]
 1057  1064     1    0.143   284512    0.143   284512
[ bonds ]
 1060  1061     1    0.148   485344    0.148   485344
[ bonds ]
 1060  1062     1    0.148   485344    0.148   485344
[ bonds ]
 1060  1063     1     0.16   225936     0.16   225936
[ bonds ]
 1060  1064     1     0.16   225936     0.16   225936
[ bonds ]
 1063  1065     1    0.143   284512    0.143   284512
[ constraints ] ; from mdp
 1065  1066     1   0.1111   0.1111
[ constraints ] ; from mdp
 1065  1067     1   0.1111   0.1111
[ bonds ]
 1065  1068     1   0.1538   186188   0.1538   186188
[ constraints ] ; from mdp
 1068  1069     1   0.1111   0.1111
[ bonds ]
 1068  1070     1    0.143   284512    0.143   284512
[ bonds ]
 1068  1076     1   0.1538   186188   0.1538   186188
[ bonds ]
 1070  1071     1   0.1334   125520   0.1334   125520
[ bonds ]
 1071  1072     1    0.122   627600    0.122   627600
[ bonds ]
 1071  1073     1   0.1522   167360   0.1522   167360
[ constraints ] ; from mdp
 1073  1074     1   0.1111   0.1111
[ constraints ] ; from mdp
 1073  1075     1   0.1111   0.1111
[ bonds ]
 1073  1085     1    0.153   186188    0.153   186188
[ constraints ] ; from mdp
 1076  1077     1   0.1111   0.1111
[ constraints ] ; from mdp
 1076  1078     1   0.1111   0.1111
[ bonds ]
 1076  1079     1    0.143   284512    0.143   284512
[ bonds ]
 1079  1080     1   0.1334   125520   0.1334   125520
[ bonds ]
 1080  1081     1    0.122   627600    0.122   627600
[ bonds ]
 1080  1082     1   0.1522   167360   0.1522   167360
[ constraints ] ; from mdp
 1082  1083     1   0.1111   0.1111
[ constraints ] ; from mdp
 1082  1084     1   0.1111   0.1111
[ bonds ]
 1082  1128     1    0.153   186188    0.153   186188
[ constraints ] ; from mdp
 1085  1086     1   0.1111   0.1111
[ constraints ] ; from mdp
 1085  1087     1   0.1111   0.1111
[ bonds ]
 1085  1088     1    0.153   186188    0.153   186188
[ constraints ] ; from mdp
 1088  1089     1   0.1111   0.1111
[ constraints ] ; from mdp
 1088  1090     1   0.1111   0.1111
[ bonds ]
 1088  1091     1    0.153   186188    0.153   186188
[ constraints ] ; from mdp
 1091  1092     1   0.1111   0.1111
[ constraints ] ; from mdp
 1091  1093     1   0.1111   0.1111
[ bonds ]
 1091  1094     1    0.153   186188    0.153   186188
[ constraints ] ; from mdp
 1094  1095     1   0.1111   0.1111
[ constraints ] ; from mdp
 1094  1096     1   0.1111   0.1111
[ bonds ]
 1094  1097     1    0.153   186188    0.153   186188
[ constraints ] ; from mdp
 1097  1098     1   0.1111   0.1111
[ constraints ] ; from mdp
 1097  1099     1   0.1111   0.1111
[ bonds ]
 1097  1100     1    0.153   186188    0.153   186188
[ constraints ] ; from mdp
 1100  1101     1   0.1111   0.1111
[ constraints ] ; from mdp
 1100  1102     1   0.1111   0.1111
[ bonds ]
 1100  1103     1    0.153   186188    0.153   186188
[ constraints ] ; from mdp
 1103  1104     1   0.1111   0.1111
[ constraints ] ; from mdp
 1103  1105     1   0.1111   0.1111
[ bonds ]
 1103  1106     1    0.153   186188    0.153   186188
[ constraints ] ; from mdp
 1106  1107     1   0.1111   0.1111
[ constraints ] ; from mdp
 1106  1108     1   0.1111   0.1111
[ bonds ]
 1106  1109     1    0.153   186188    0.153   186188
[ constraints ] ; from mdp
 1109  1110     1   0.1111   0.1111
[ constraints ] ; from mdp
 1109  1111     1   0.1111   0.1111
[ bonds ]
 1109  1112     1    0.153   186188    0.153   186188
[ constraints ] ; from mdp
 1112  1113     1   0.1111   0.1111
[ constraints ] ; from mdp
 1112  1114     1   0.1111   0.1111
[ bonds ]
 1112  1115     1    0.153   186188    0.153   186188
[ constraints ] ; from mdp
 1115  1116     1   0.1111   0.1111
[ constraints ] ; from mdp
 1115  1117     1   0.1111   0.1111
[ bonds ]
 1115  1118     1    0.153   186188    0.153   186188
[ constraints ] ; from mdp
 1118  1119     1   0.1111   0.1111
[ constraints ] ; from mdp
 1118  1120     1   0.1111   0.1111
[ bonds ]
 1118  1121     1    0.153   186188    0.153   186188
[ constraints ] ; from mdp
 1121  1122     1   0.1111   0.1111
[ constraints ] ; from mdp
 1121  1123     1   0.1111   0.1111
[ bonds ]
 1121  1124     1   0.1528   186188   0.1528   186188
[ constraints ] ; from mdp
 1124  1125     1   0.1111   0.1111
[ constraints ] ; from mdp
 1124  1126     1   0.1111   0.1111
[ constraints ] ; from mdp
 1124  1127     1   0.1111   0.1111
[ constraints ] ; from mdp
 1128  1129     1   0.1111   0.1111
[ constraints ] ; from mdp
 1128  1130     1   0.1111   0.1111
[ bonds ]
 1128  1131     1    0.153   186188    0.153   186188
[ constraints ] ; from mdp
 1131  1132     1   0.1111   0.1111
[ constraints ] ; from mdp
 1131  1133     1   0.1111   0.1111
[ bonds ]
 1131  1134     1    0.153   186188    0.153   186188
[ constraints ] ; from mdp
 1134  1135     1   0.1111   0.1111
[ constraints ] ; from mdp
 1134  1136     1   0.1111   0.1111
[ bonds ]
 1134  1137     1    0.153   186188    0.153   186188
[ constraints ] ; from mdp
 1137  1138     1   0.1111   0.1111
[ constraints ] ; from mdp
 1137  1139     1   0.1111   0.1111
[ bonds ]
 1137  1140     1    0.153   186188    0.153   186188
[ constraints ] ; from mdp
 1140  1141     1   0.1111   0.1111
[ constraints ] ; from mdp
 1140  1142     1   0.1111   0.1111
[ bonds ]
 1140  1143     1    0.153   186188    0.153   186188
[ constraints ] ; from mdp
 1143  1144     1   0.1111   0.1111
[ constraints ] ; from mdp
 1143  1145     1   0.1111   0.1111
[ bonds ]
 1143  1146     1    0.153   186188    0.153   186188
[ constraints ] ; from mdp
 1146  1147     1   0.1111   0.1111
[ constraints ] ; from mdp
 1146  1148     1   0.1111   0.1111
[ bonds ]
 1146  1149     1    0.153   186188    0.153   186188
[ constraints ] ; from mdp
 1149  1150     1   0.1111   0.1111
[ constraints ] ; from mdp
 1149  1151     1   0.1111   0.1111
[ bonds ]
 1149  1152     1    0.153   186188    0.153   186188
[ constraints ] ; from mdp
 1152  1153     1   0.1111   0.1111
[ constraints ] ; from mdp
 1152  1154     1   0.1111   0.1111
[ bonds ]
 1152  1155     1    0.153   186188    0.153   186188
[ constraints ] ; from mdp
 1155  1156     1   0.1111   0.1111
[ constraints ] ; from mdp
 1155  1157     1   0.1111   0.1111
[ bonds ]
 1155  1158     1    0.153   186188    0.153   186188
[ constraints ] ; from mdp
 1158  1159     1   0.1111   0.1111
[ constraints ] ; from mdp
 1158  1160     1   0.1111   0.1111
[ bonds ]
 1158  1161     1    0.153   186188    0.153   186188
[ constraints ] ; from mdp
 1161  1162     1   0.1111   0.1111
[ constraints ] ; from mdp
 1161  1163     1   0.1111   0.1111
[ bonds ]
 1161  1164     1    0.153   186188    0.153   186188
[ constraints ] ; from mdp
 1164  1165     1   0.1111   0.1111
[ constraints ] ; from mdp
 1164  1166     1   0.1111   0.1111
[ bonds ]
 1164  1167     1   0.1528   186188   0.1528   186188
[ constraints ] ; from mdp
 1167  1168     1   0.1111   0.1111
[ constraints ] ; from mdp
 1167  1169     1   0.1111   0.1111
[ constraints ] ; from mdp
 1167  1170     1   0.1111   0.1111
[ bonds ]
 1171  1172     1    0.151   179912    0.151   179912
[ bonds ]
 1171  1176     1    0.151   179912    0.151   179912
[ bonds ]
 1171  1180     1    0.151   179912    0.151   179912
[ bonds ]
 1171  1184     1    0.151   179912    0.151   179912
[ constraints ] ; from mdp
 1172  1173     1    0.108    0.108
[ constraints ] ; from mdp
 1172  1174     1    0.108    0.108
[ constraints ] ; from mdp
 1172  1175     1    0.108    0.108
[ constraints ] ; from mdp
 1176  1177     1    0.108    0.108
[ constraints ] ; from mdp
 1176  1178     1    0.108    0.108
[ constraints ] ; from mdp
 1176  1179     1    0.108    0.108
[ constraints ] ; from mdp
 1180  1181     1    0.108    0.108
[ constraints ] ; from mdp
 1180  1182     1    0.108    0.108
[ constraints ] ; from mdp
 1180  1183     1    0.108    0.108
[ constraints ] ; from mdp
 1184  1185     1    0.108    0.108
[ constraints ] ; from mdp
 1184  1186     1    0.108    0.108
[ bonds ]
 1184  1187     1    0.153   186188    0.153   186188
[ constraints ] ; from mdp
 1187  1188     1   0.1111   0.1111
[ constraints ] ; from mdp
 1187  1189     1   0.1111   0.1111
[ bonds ]
 1187  1194     1    0.143   284512    0.143   284512
[ bonds ]
 1190  1191     1    0.148   485344    0.148   485344
[ bonds ]
 1190  1192     1    0.148   485344    0.148   485344
[ bonds ]
 1190  1193     1     0.16   225936     0.16   225936
[ bonds ]
 1190  1194     1     0.16   225936     0.16   225936
[ bonds ]
 1193  1195     1    0.143   284512    0.143   284512
[ constraints ] ; from mdp
 1195  1196     1   0.1111   0.1111
[ constraints ] ; from mdp
 1195  1197     1   0.1111   0.1111
[ bonds ]
 1195  1198     1   0.1538   186188   0.1538   186188
[ constraints ] ; from mdp
 1198  1199     1   0.1111   0.1111
[ bonds ]
 1198  1200     1    0.143   284512    0.143   284512
[ bonds ]
 1198  1206     1   0.1538   186188   0.1538   186188
[ bonds ]
 1200  1201     1   0.1334   125520   0.1334   125520
[ bonds ]
 1201  1202     1    0.122   627600    0.122   627600
[ bonds ]
 1201  1203     1   0.1522   167360   0.1522   167360
[ constraints ] ; from mdp
 1203  1204     1   0.1111   0.1111
[ constraints ] ; from mdp
 1203  1205     1   0.1111   0.1111
[ bonds ]
 1203  1215     1    0.153   186188    0.153   186188
[ constraints ] ; from mdp
 1206  1207     1   0.1111   0.1111
[ constraints ] ; from mdp
 1206  1208     1   0.1111   0.1111
[ bonds ]
 1206  1209     1    0.143   284512    0.143   284512
[ bonds ]
 1209  1210     1   0.1334   125520   0.1334   125520
[ bonds ]
 1210  1211     1    0.122   627600    0.122   627600
[ bonds ]
 1210  1212     1   0.1522   167360   0.1522   167360
[ constraints ] ; from mdp
 1212  1213     1   0.1111   0.1111
[ constraints ] ; from mdp
 1212  1214     1   0.1111   0.1111
[ bonds ]
 1212  1258     1    0.153   186188    0.153   186188
[ constraints ] ; from mdp
 1215  1216     1   0.1111   0.1111
[ constraints ] ; from mdp
 1215  1217     1   0.1111   0.1111
[ bonds ]
 1215  1218     1    0.153   186188    0.153   186188
[ constraints ] ; from mdp
 1218  1219     1   0.1111   0.1111
[ constraints ] ; from mdp
 1218  1220     1   0.1111   0.1111
[ bonds ]
 1218  1221     1    0.153   186188    0.153   186188
[ constraints ] ; from mdp
 1221  1222     1   0.1111   0.1111
[ constraints ] ; from mdp
 1221  1223     1   0.1111   0.1111
[ bonds ]
 1221  1224     1    0.153   186188    0.153   186188
[ constraints ] ; from mdp
 1224  1225     1   0.1111   0.1111
[ constraints ] ; from mdp
 1224  1226     1   0.1111   0.1111
[ bonds ]
 1224  1227     1    0.153   186188    0.153   186188
[ constraints ] ; from mdp
 1227  1228     1   0.1111   0.1111
[ constraints ] ; from mdp
 1227  1229     1   0.1111   0.1111
[ bonds ]
 1227  1230     1    0.153   186188    0.153   186188
[ constraints ] ; from mdp
 1230  1231     1   0.1111   0.1111
[ constraints ] ; from mdp
 1230  1232     1   0.1111   0.1111
[ bonds ]
 1230  1233     1    0.153   186188    0.153   186188
[ constraints ] ; from mdp
 1233  1234     1   0.1111   0.1111
[ constraints ] ; from mdp
 1233  1235     1   0.1111   0.1111
[ bonds ]
 1233  1236     1    0.153   186188    0.153   186188
[ constraints ] ; from mdp
 1236  1237     1   0.1111   0.1111
[ constraints ] ; from mdp
 1236  1238     1   0.1111   0.1111
[ bonds ]
 1236  1239     1    0.153   186188    0.153   186188
[ constraints ] ; from mdp
 1239  1240     1   0.1111   0.1111
[ constraints ] ; from mdp
 1239  1241     1   0.1111   0.1111
[ bonds ]
 1239  1242     1    0.153   186188    0.153   186188
[ constraints ] ; from mdp
 1242  1243     1   0.1111   0.1111
[ constraints ] ; from mdp
 1242  1244     1   0.1111   0.1111
[ bonds ]
 1242  1245     1    0.153   186188    0.153   186188
[ constraints ] ; from mdp
 1245  1246     1   0.1111   0.1111
[ constraints ] ; from mdp
 1245  1247     1   0.1111   0.1111
[ bonds ]
 1245  1248     1    0.153   186188    0.153   186188
[ constraints ] ; from mdp
 1248  1249     1   0.1111   0.1111
[ constraints ] ; from mdp
 1248  1250     1   0.1111   0.1111
[ bonds ]
 1248  1251     1    0.153   186188    0.153   186188
[ constraints ] ; from mdp
 1251  1252     1   0.1111   0.1111
[ constraints ] ; from mdp
 1251  1253     1   0.1111   0.1111
[ bonds ]
 1251  1254     1   0.1528   186188   0.1528   186188
[ constraints ] ; from mdp
 1254  1255     1   0.1111   0.1111
[ constraints ] ; from mdp
 1254  1256     1   0.1111   0.1111
[ constraints ] ; from mdp
 1254  1257     1   0.1111   0.1111
[ constraints ] ; from mdp
 1258  1259     1   0.1111   0.1111
[ constraints ] ; from mdp
 1258  1260     1   0.1111   0.1111
[ bonds ]
 1258  1261     1    0.153   186188    0.153   186188
[ constraints ] ; from mdp
 1261  1262     1   0.1111   0.1111
[ constraints ] ; from mdp
 1261  1263     1   0.1111   0.1111
[ bonds ]
 1261  1264     1    0.153   186188    0.153   186188
[ constraints ] ; from mdp
 1264  1265     1   0.1111   0.1111
[ constraints ] ; from mdp
 1264  1266     1   0.1111   0.1111
[ bonds ]
 1264  1267     1    0.153   186188    0.153   186188
[ constraints ] ; from mdp
 1267  1268     1   0.1111   0.1111
[ constraints ] ; from mdp
 1267  1269     1   0.1111   0.1111
[ bonds ]
 1267  1270     1    0.153   186188    0.153   186188
[ constraints ] ; from mdp
 1270  1271     1   0.1111   0.1111
[ constraints ] ; from mdp
 1270  1272     1   0.1111   0.1111
[ bonds ]
 1270  1273     1    0.153   186188    0.153   186188
[ constraints ] ; from mdp
 1273  1274     1   0.1111   0.1111
[ constraints ] ; from mdp
 1273  1275     1   0.1111   0.1111
[ bonds ]
 1273  1276     1    0.153   186188    0.153   186188
[ constraints ] ; from mdp
 1276  1277     1   0.1111   0.1111
[ constraints ] ; from mdp
 1276  1278     1   0.1111   0.1111
[ bonds ]
 1276  1279     1    0.153   186188    0.153   186188
[ constraints ] ; from mdp
 1279  1280     1   0.1111   0.1111
[ constraints ] ; from mdp
 1279  1281     1   0.1111   0.1111
[ bonds ]
 1279  1282     1    0.153   186188    0.153   186188
[ constraints ] ; from mdp
 1282  1283     1   0.1111   0.1111
[ constraints ] ; from mdp
 1282  1284     1   0.1111   0.1111
[ bonds ]
 1282  1285     1    0.153   186188    0.153   186188
[ constraints ] ; from mdp
 1285  1286     1   0.1111   0.1111
[ constraints ] ; from mdp
 1285  1287     1   0.1111   0.1111
[ bonds ]
 1285  1288     1    0.153   186188    0.153   186188
[ constraints ] ; from mdp
 1288  1289     1   0.1111   0.1111
[ constraints ] ; from mdp
 1288  1290     1   0.1111   0.1111
[ bonds ]
 1288  1291     1    0.153   186188    0.153   186188
[ constraints ] ; from mdp
 1291  1292     1   0.1111   0.1111
[ constraints ] ; from mdp
 1291  1293     1   0.1111   0.1111
[ bonds ]
 1291  1294     1    0.153   186188    0.153   186188
[ constraints ] ; from mdp
 1294  1295     1   0.1111   0.1111
[ constraints ] ; from mdp
 1294  1296     1   0.1111   0.1111
[ bonds ]
 1294  1297     1   0.1528   186188   0.1528   186188
[ constraints ] ; from mdp
 1297  1298     1   0.1111   0.1111
[ constraints ] ; from mdp
 1297  1299     1   0.1111   0.1111
[ constraints ] ; from mdp
 1297  1300     1   0.1111   0.1111
[ bonds ]
 1301  1302     1    0.151   179912    0.151   179912
[ bonds ]
 1301  1306     1    0.151   179912    0.151   179912
[ bonds ]
 1301  1310     1    0.151   179912    0.151   179912
[ bonds ]
 1301  1314     1    0.151   179912    0.151   179912
[ constraints ] ; from mdp
 1302  1303     1    0.108    0.108
[ constraints ] ; from mdp
 1302  1304     1    0.108    0.108
[ constraints ] ; from mdp
 1302  1305     1    0.108    0.108
[ constraints ] ; from mdp
 1306  1307     1    0.108    0.108
[ constraints ] ; from mdp
 1306  1308     1    0.108    0.108
[ constraints ] ; from mdp
 1306  1309     1    0.108    0.108
[ constraints ] ; from mdp
 1310  1311     1    0.108    0.108
[ constraints ] ; from mdp
 1310  1312     1    0.108    0.108
[ constraints ] ; from mdp
 1310  1313     1    0.108    0.108
[ constraints ] ; from mdp
 1314  1315     1    0.108    0.108
[ constraints ] ; from mdp
 1314  1316     1    0.108    0.108
[ bonds ]
 1314  1317     1    0.153   186188    0.153   186188
[ constraints ] ; from mdp
 1317  1318     1   0.1111   0.1111
[ constraints ] ; from mdp
 1317  1319     1   0.1111   0.1111
[ bonds ]
 1317  1324     1    0.143   284512    0.143   284512
[ bonds ]
 1320  1321     1    0.148   485344    0.148   485344
[ bonds ]
 1320  1322     1    0.148   485344    0.148   485344
[ bonds ]
 1320  1323     1     0.16   225936     0.16   225936
[ bonds ]
 1320  1324     1     0.16   225936     0.16   225936
[ bonds ]
 1323  1325     1    0.143   284512    0.143   284512
[ constraints ] ; from mdp
 1325  1326     1   0.1111   0.1111
[ constraints ] ; from mdp
 1325  1327     1   0.1111   0.1111
[ bonds ]
 1325  1328     1   0.1538   186188   0.1538   186188
[ constraints ] ; from mdp
 1328  1329     1   0.1111   0.1111
[ bonds ]
 1328  1330     1    0.143   284512    0.143   284512
[ bonds ]
 1328  1336     1   0.1538   186188   0.1538   186188
[ bonds ]
 1330  1331     1   0.1334   125520   0.1334   125520
[ bonds ]
 1331  1332     1    0.122   627600    0.122   627600
[ bonds ]
 1331  1333     1   0.1522   167360   0.1522   167360
[ constraints ] ; from mdp
 1333  1334     1   0.1111   0.1111
[ constraints ] ; from mdp
 1333  1335     1   0.1111   0.1111
[ bonds ]
 1333  1345     1    0.153   186188    0.153   186188
[ constraints ] ; from mdp
 1336  1337     1   0.1111   0.1111
[ constraints ] ; from mdp
 1336  1338     1   0.1111   0.1111
[ bonds ]
 1336  1339     1    0.143   284512    0.143   284512
[ bonds ]
 1339  1340     1   0.1334   125520   0.1334   125520
[ bonds ]
 1340  1341     1    0.122   627600    0.122   627600
[ bonds ]
 1340  1342     1   0.1522   167360   0.1522   167360
[ constraints ] ; from mdp
 1342  1343     1   0.1111   0.1111
[ constraints ] ; from mdp
 1342  1344     1   0.1111   0.1111
[ bonds ]
 1342  1388     1    0.153   186188    0.153   186188
[ constraints ] ; from mdp
 1345  1346     1   0.1111   0.1111
[ constraints ] ; from mdp
 1345  1347     1   0.1111   0.1111
[ bonds ]
 1345  1348     1    0.153   186188    0.153   186188
[ constraints ] ; from mdp
 1348  1349     1   0.1111   0.1111
[ constraints ] ; from mdp
 1348  1350     1   0.1111   0.1111
[ bonds ]
 1348  1351     1    0.153   186188    0.153   186188
[ constraints ] ; from mdp
 1351  1352     1   0.1111   0.1111
[ constraints ] ; from mdp
 1351  1353     1   0.1111   0.1111
[ bonds ]
 1351  1354     1    0.153   186188    0.153   186188
[ constraints ] ; from mdp
 1354  1355     1   0.1111   0.1111
[ constraints ] ; from mdp
 1354  1356     1   0.1111   0.1111
[ bonds ]
 1354  1357     1    0.153   186188    0.153   186188
[ constraints ] ; from mdp
 1357  1358     1   0.1111   0.1111
[ constraints ] ; from mdp
 1357  1359     1   0.1111   0.1111
[ bonds ]
 1357  1360     1    0.153   186188    0.153   186188
[ constraints ] ; from mdp
 1360  1361     1   0.1111   0.1111
[ constraints ] ; from mdp
 1360  1362     1   0.1111   0.1111
[ bonds ]
 1360  1363     1    0.153   186188    0.153   186188
[ constraints ] ; from mdp
 1363  1364     1   0.1111   0.1111
[ constraints ] ; from mdp
 1363  1365     1   0.1111   0.1111
[ bonds ]
 1363  1366     1    0.153   186188    0.153   186188
[ constraints ] ; from mdp
 1366  1367     1   0.1111   0.1111
[ constraints ] ; from mdp
 1366  1368     1   0.1111   0.1111
[ bonds ]
 1366  1369     1    0.153   186188    0.153   186188
[ constraints ] ; from mdp
 1369  1370     1   0.1111   0.1111
[ constraints ] ; from mdp
 1369  1371     1   0.1111   0.1111
[ bonds ]
 1369  1372     1    0.153   186188    0.153   186188
[ constraints ] ; from mdp
 1372  1373     1   0.1111   0.1111
[ constraints ] ; from mdp
 1372  1374     1   0.1111   0.1111
[ bonds ]
 1372  1375     1    0.153   186188    0.153   186188
[ constraints ] ; from mdp
 1375  1376     1   0.1111   0.1111
[ constraints ] ; from mdp
 1375  1377     1   0.1111   0.1111
[ bonds ]
 1375  1378     1    0.153   186188    0.153   186188
[ constraints ] ; from mdp
 1378  1379     1   0.1111   0.1111
[ constraints ] ; from mdp
 1378  1380     1   0.1111   0.1111
[ bonds ]
 1378  1381     1    0.153   186188    0.153   186188
[ constraints ] ; from mdp
 1381  1382     1   0.1111   0.1111
[ constraints ] ; from mdp
 1381  1383     1   0.1111   0.1111
[ bonds ]
 1381  1384     1   0.1528   186188   0.1528   186188
[ constraints ] ; from mdp
 1384  1385     1   0.1111   0.1111
[ constraints ] ; from mdp
 1384  1386     1   0.1111   0.1111
[ constraints ] ; from mdp
 1384  1387     1   0.1111   0.1111
[ constraints ] ; from mdp
 1388  1389     1   0.1111   0.1111
[ constraints ] ; from mdp
 1388  1390     1   0.1111   0.1111
[ bonds ]
 1388  1391     1    0.153   186188    0.153   186188
[ constraints ] ; from mdp
 1391  1392     1   0.1111   0.1111
[ constraints ] ; from mdp
 1391  1393     1   0.1111   0.1111
[ bonds ]
 1391  1394     1    0.153   186188    0.153   186188
[ constraints ] ; from mdp
 1394  1395     1   0.1111   0.1111
[ constraints ] ; from mdp
 1394  1396     1   0.1111   0.1111
[ bonds ]
 1394  1397     1    0.153   186188    0.153   186188
[ constraints ] ; from mdp
 1397  1398     1   0.1111   0.1111
[ constraints ] ; from mdp
 1397  1399     1   0.1111   0.1111
[ bonds ]
 1397  1400     1    0.153   186188    0.153   186188
[ constraints ] ; from mdp
 1400  1401     1   0.1111   0.1111
[ constraints ] ; from mdp
 1400  1402     1   0.1111   0.1111
[ bonds ]
 1400  1403     1    0.153   186188    0.153   186188
[ constraints ] ; from mdp
 1403  1404     1   0.1111   0.1111
[ constraints ] ; from mdp
 1403  1405     1   0.1111   0.1111
[ bonds ]
 1403  1406     1    0.153   186188    0.153   186188
[ constraints ] ; from mdp
 1406  1407     1   0.1111   0.1111
[ constraints ] ; from mdp
 1406  1408     1   0.1111   0.1111
[ bonds ]
 1406  1409     1    0.153   186188    0.153   186188
[ constraints ] ; from mdp
 1409  1410     1   0.1111   0.1111
[ constraints ] ; from mdp
 1409  1411     1   0.1111   0.1111
[ bonds ]
 1409  1412     1    0.153   186188    0.153   186188
[ constraints ] ; from mdp
 1412  1413     1   0.1111   0.1111
[ constraints ] ; from mdp
 1412  1414     1   0.1111   0.1111
[ bonds ]
 1412  1415     1    0.153   186188    0.153   186188
[ constraints ] ; from mdp
 1415  1416     1   0.1111   0.1111
[ constraints ] ; from mdp
 1415  1417     1   0.1111   0.1111
[ bonds ]
 1415  1418     1    0.153   186188    0.153   186188
[ constraints ] ; from mdp
 1418  1419     1   0.1111   0.1111
[ constraints ] ; from mdp
 1418  1420     1   0.1111   0.1111
[ bonds ]
 1418  1421     1    0.153   186188    0.153   186188
[ constraints ] ; from mdp
 1421  1422     1   0.1111   0.1111
[ constraints ] ; from mdp
 1421  1423     1   0.1111   0.1111
[ bonds ]
 1421  1424     1    0.153   186188    0.153   186188
[ constraints ] ; from mdp
 1424  1425     1   0.1111   0.1111
[ constraints ] ; from mdp
 1424  1426     1   0.1111   0.1111
[ bonds ]
 1424  1427     1   0.1528   186188   0.1528   186188
[ constraints ] ; from mdp
 1427  1428     1   0.1111   0.1111
[ constraints ] ; from mdp
 1427  1429     1   0.1111   0.1111
[ constraints ] ; from mdp
 1427  1430     1   0.1111   0.1111
[ bonds ]
 1431  1432     1    0.151   179912    0.151   179912
[ bonds ]
 1431  1436     1    0.151   179912    0.151   179912
[ bonds ]
 1431  1440     1    0.151   179912    0.151   179912
[ bonds ]
 1431  1444     1    0.151   179912    0.151   179912
[ constraints ] ; from mdp
 1432  1433     1    0.108    0.108
[ constraints ] ; from mdp
 1432  1434     1    0.108    0.108
[ constraints ] ; from mdp
 1432  1435     1    0.108    0.108
[ constraints ] ; from mdp
 1436  1437     1    0.108    0.108
[ constraints ] ; from mdp
 1436  1438     1    0.108    0.108
[ constraints ] ; from mdp
 1436  1439     1    0.108    0.108
[ constraints ] ; from mdp
 1440  1441     1    0.108    0.108
[ constraints ] ; from mdp
 1440  1442     1    0.108    0.108
[ constraints ] ; from mdp
 1440  1443     1    0.108    0.108
[ constraints ] ; from mdp
 1444  1445     1    0.108    0.108
[ constraints ] ; from mdp
 1444  1446     1    0.108    0.108
[ bonds ]
 1444  1447     1    0.153   186188    0.153   186188
[ constraints ] ; from mdp
 1447  1448     1   0.1111   0.1111
[ constraints ] ; from mdp
 1447  1449     1   0.1111   0.1111
[ bonds ]
 1447  1454     1    0.143   284512    0.143   284512
[ bonds ]
 1450  1451     1    0.148   485344    0.148   485344
[ bonds ]
 1450  1452     1    0.148   485344    0.148   485344
[ bonds ]
 1450  1453     1     0.16   225936     0.16   225936
[ bonds ]
 1450  1454     1     0.16   225936     0.16   225936
[ bonds ]
 1453  1455     1    0.143   284512    0.143   284512
[ constraints ] ; from mdp
 1455  1456     1   0.1111   0.1111
[ constraints ] ; from mdp
 1455  1457     1   0.1111   0.1111
[ bonds ]
 1455  1458     1   0.1538   186188   0.1538   186188
[ constraints ] ; from mdp
 1458  1459     1   0.1111   0.1111
[ bonds ]
 1458  1460     1    0.143   284512    0.143   284512
[ bonds ]
 1458  1466     1   0.1538   186188   0.1538   186188
[ bonds ]
 1460  1461     1   0.1334   125520   0.1334   125520
[ bonds ]
 1461  1462     1    0.122   627600    0.122   627600
[ bonds ]
 1461  1463     1   0.1522   167360   0.1522   167360
[ constraints ] ; from mdp
 1463  1464     1   0.1111   0.1111
[ constraints ] ; from mdp
 1463  1465     1   0.1111   0.1111
[ bonds ]
 1463  1475     1    0.153   186188    0.153   186188
[ constraints ] ; from mdp
 1466  1467     1   0.1111   0.1111
[ constraints ] ; from mdp
 1466  1468     1   0.1111   0.1111
[ bonds ]
 1466  1469     1    0.143   284512    0.143   284512
[ bonds ]
 1469  1470     1   0.1334   125520   0.1334   125520
[ bonds ]
 1470  1471     1    0.122   627600    0.122   627600
[ bonds ]
 1470  1472     1   0.1522   167360   0.1522   167360
[ constraints ] ; from mdp
 1472  1473     1   0.1111   0.1111
[ constraints ] ; from mdp
 1472  1474     1   0.1111   0.1111
[ bonds ]
 1472  1518     1    0.153   186188    0.153   186188
[ constraints ] ; from mdp
 1475  1476     1   0.1111   0.1111
[ constraints ] ; from mdp
 1475  1477     1   0.1111   0.1111
[ bonds ]
 1475  1478     1    0.153   186188    0.153   186188
[ constraints ] ; from mdp
 1478  1479     1   0.1111   0.1111
[ constraints ] ; from mdp
 1478  1480     1   0.1111   0.1111
[ bonds ]
 1478  1481     1    0.153   186188    0.153   186188
[ constraints ] ; from mdp
 1481  1482     1   0.1111   0.1111
[ constraints ] ; from mdp
 1481  1483     1   0.1111   0.1111
[ bonds ]
 1481  1484     1    0.153   186188    0.153   186188
[ constraints ] ; from mdp
 1484  1485     1   0.1111   0.1111
[ constraints ] ; from mdp
 1484  1486     1   0.1111   0.1111
[ bonds ]
 1484  1487     1    0.153   186188    0.153   186188
[ constraints ] ; from mdp
 1487  1488     1   0.1111   0.1111
[ constraints ] ; from mdp
 1487  1489     1   0.1111   0.1111
[ bonds ]
 1487  1490     1    0.153   186188    0.153   186188
[ constraints ] ; from mdp
 1490  1491     1   0.1111   0.1111
[ constraints ] ; from mdp
 1490  1492     1   0.1111   0.1111
[ bonds ]
 1490  1493     1    0.153   186188    0.153   186188
[ constraints ] ; from mdp
 1493  1494     1   0.1111   0.1111
[ constraints ] ; from mdp
 1493  1495     1   0.1111   0.1111
[ bonds ]
 1493  1496     1    0.153   186188    0.153   186188
[ constraints ] ; from mdp
 1496  1497     1   0.1111   0.1111
[ constraints ] ; from mdp
 1496  1498     1   0.1111   0.1111
[ bonds ]
 1496  1499     1    0.153   186188    0.153   186188
[ constraints ] ; from mdp
 1499  1500     1   0.1111   0.1111
[ constraints ] ; from mdp
 1499  1501     1   0.1111   0.1111
[ bonds ]
 1499  1502     1    0.153   186188    0.153   186188
[ constraints ] ; from mdp
 1502  1503     1   0.1111   0.1111
[ constraints ] ; from mdp
 1502  1504     1   0.1111   0.1111
[ bonds ]
 1502  1505     1    0.153   186188    0.153   186188
[ constraints ] ; from mdp
 1505  1506     1   0.1111   0.1111
[ constraints ] ; from mdp
 1505  1507     1   0.1111   0.1111
[ bonds ]
 1505  1508     1    0.153   186188    0.153   186188
[ constraints ] ; from mdp
 1508  1509     1   0.1111   0.1111
[ constraints ] ; from mdp
 1508  1510     1   0.1111   0.1111
[ bonds ]
 1508  1511     1    0.153   186188    0.153   186188
[ constraints ] ; from mdp
 1511  1512     1   0.1111   0.1111
[ constraints ] ; from mdp
 1511  1513     1   0.1111   0.1111
[ bonds ]
 1511  1514     1   0.1528   186188   0.1528   186188
[ constraints ] ; from mdp
 1514  1515     1   0.1111   0.1111
[ constraints ] ; from mdp
 1514  1516     1   0.1111   0.1111
[ constraints ] ; from mdp
 1514  1517     1   0.1111   0.1111
[ constraints ] ; from mdp
 1518  1519     1   0.1111   0.1111
[ constraints ] ; from mdp
 1518  1520     1   0.1111   0.1111
[ bonds ]
 1518  1521     1    0.153   186188    0.153   186188
[ constraints ] ; from mdp
 1521  1522     1   0.1111   0.1111
[ constraints ] ; from mdp
 1521  1523     1   0.1111   0.1111
[ bonds ]
 1521  1524     1    0.153   186188    0.153   186188
[ constraints ] ; from mdp
 1524  1525     1   0.1111   0.1111
[ constraints ] ; from mdp
 1524  1526     1   0.1111   0.1111
[ bonds ]
 1524  1527     1    0.153   186188    0.153   186188
[ constraints ] ; from mdp
 1527  1528     1   0.1111   0.1111
[ constraints ] ; from mdp
 1527  1529     1   0.1111   0.1111
[ bonds ]
 1527  1530     1    0.153   186188    0.153   186188
[ constraints ] ; from mdp
 1530  1531     1   0.1111   0.1111
[ constraints ] ; from mdp
 1530  1532     1   0.1111   0.1111
[ bonds ]
 1530  1533     1    0.153   186188    0.153   186188
[ constraints ] ; from mdp
 1533  1534     1   0.1111   0.1111
[ constraints ] ; from mdp
 1533  1535     1   0.1111   0.1111
[ bonds ]
 1533  1536     1    0.153   186188    0.153   186188
[ constraints ] ; from mdp
 1536  1537     1   0.1111   0.1111
[ constraints ] ; from mdp
 1536  1538     1   0.1111   0.1111
[ bonds ]
 1536  1539     1    0.153   186188    0.153   186188
[ constraints ] ; from mdp
 1539  1540     1   0.1111   0.1111
[ constraints ] ; from mdp
 1539  1541     1   0.1111   0.1111
[ bonds ]
 1539  1542     1    0.153   186188    0.153   186188
[ constraints ] ; from mdp
 1542  1543     1   0.1111   0.1111
[ constraints ] ; from mdp
 1542  1544     1   0.1111   0.1111
[ bonds ]
 1542  1545     1    0.153   186188    0.153   186188
[ constraints ] ; from mdp
 1545  1546     1   0.1111   0.1111
[ constraints ] ; from mdp
 1545  1547     1   0.1111   0.1111
[ bonds ]
 1545  1548     1    0.153   186188    0.153   186188
[ constraints ] ; from mdp
 1548  1549     1   0.1111   0.1111
[ constraints ] ; from mdp
 1548  1550     1   0.1111   0.1111
[ bonds ]
 1548  1551     1    0.153   186188    0.153   186188
[ constraints ] ; from mdp
 1551  1552     1   0.1111   0.1111
[ constraints ] ; from mdp
 1551  1553     1   0.1111   0.1111
[ bonds ]
 1551  1554     1    0.153   186188    0.153   186188
[ constraints ] ; from mdp
 1554  1555     1   0.1111   0.1111
[ constraints ] ; from mdp
 1554  1556     1   0.1111   0.1111
[ bonds ]
 1554  1557     1   0.1528   186188   0.1528   186188
[ constraints ] ; from mdp
 1557  1558     1   0.1111   0.1111
[ constraints ] ; from mdp
 1557  1559     1   0.1111   0.1111
[ constraints ] ; from mdp
 1557  1560     1   0.1111   0.1111
[ bonds ]
 1561  1562     1    0.151   179912    0.151   179912
[ bonds ]
 1561  1566     1    0.151   179912    0.151   179912
[ bonds ]
 1561  1570     1    0.151   179912    0.151   179912
[ bonds ]
 1561  1574     1    0.151   179912    0.151   179912
[ constraints ] ; from mdp
 1562  1563     1    0.108    0.108
[ constraints ] ; from mdp
 1562  1564     1    0.108    0.108
[ constraints ] ; from mdp
 1562  1565     1    0.108    0.108
[ constraints ] ; from mdp
 1566  1567     1    0.108    0.108
[ constraints ] ; from mdp
 1566  1568     1    0.108    0.108
[ constraints ] ; from mdp
 1566  1569     1    0.108    0.108
[ constraints ] ; from mdp
 1570  1571     1    0.108    0.108
[ constraints ] ; from mdp
 1570  1572     1    0.108    0.108
[ constraints ] ; from mdp
 1570  1573     1    0.108    0.108
[ constraints ] ; from mdp
 1574  1575     1    0.108    0.108
[ constraints ] ; from mdp
 1574  1576     1    0.108    0.108
[ bonds ]
 1574  1577     1    0.153   186188    0.153   186188
[ constraints ] ; from mdp
 1577  1578     1   0.1111   0.1111
[ constraints ] ; from mdp
 1577  1579     1   0.1111   0.1111
[ bonds ]
 1577  1584     1    0.143   284512    0.143   284512
[ bonds ]
 1580  1581     1    0.148   485344    0.148   485344
[ bonds ]
 1580  1582     1    0.148   485344    0.148   485344
[ bonds ]
 1580  1583     1     0.16   225936     0.16   225936
[ bonds ]
 1580  1584     1     0.16   225936     0.16   225936
[ bonds ]
 1583  1585     1    0.143   284512    0.143   284512
[ constraints ] ; from mdp
 1585  1586     1   0.1111   0.1111
[ constraints ] ; from mdp
 1585  1587     1   0.1111   0.1111
[ bonds ]
 1585  1588     1   0.1538   186188   0.1538   186188
[ constraints ] ; from mdp
 1588  1589     1   0.1111   0.1111
[ bonds ]
 1588  1590     1    0.143   284512    0.143   284512
[ bonds ]
 1588  1596     1   0.1538   186188   0.1538   186188
[ bonds ]
 1590  1591     1   0.1334   125520   0.1334   125520
[ bonds ]
 1591  1592     1    0.122   627600    0.122   627600
[ bonds ]
 1591  1593     1   0.1522   167360   0.1522   167360
[ constraints ] ; from mdp
 1593  1594     1   0.1111   0.1111
[ constraints ] ; from mdp
 1593  1595     1   0.1111   0.1111
[ bonds ]
 1593  1605     1    0.153   186188    0.153   186188
[ constraints ] ; from mdp
 1596  1597     1   0.1111   0.1111
[ constraints ] ; from mdp
 1596  1598     1   0.1111   0.1111
[ bonds ]
 1596  1599     1    0.143   284512    0.143   284512
[ bonds ]
 1599  1600     1   0.1334   125520   0.1334   125520
[ bonds ]
 1600  1601     1    0.122   627600    0.122   627600
[ bonds ]
 1600  1602     1   0.1522   167360   0.1522   167360
[ constraints ] ; from mdp
 1602  1603     1   0.1111   0.1111
[ constraints ] ; from mdp
 1602  1604     1   0.1111   0.1111
[ bonds ]
 1602  1648     1    0.153   186188    0.153   186188
[ constraints ] ; from mdp
 1605  1606     1   0.1111   0.1111
[ constraints ] ; from mdp
 1605  1607     1   0.1111   0.1111
[ bonds ]
 1605  1608     1    0.153   186188    0.153   186188
[ constraints ] ; from mdp
 1608  1609     1   0.1111   0.1111
[ constraints ] ; from mdp
 1608  1610     1   0.1111   0.1111
[ bonds ]
 1608  1611     1    0.153   186188    0.153   186188
[ constraints ] ; from mdp
 1611  1612     1   0.1111   0.1111
[ constraints ] ; from mdp
 1611  1613     1   0.1111   0.1111
[ bonds ]
 1611  1614     1    0.153   186188    0.153   186188
[ constraints ] ; from mdp
 1614  1615     1   0.1111   0.1111
[ constraints ] ; from mdp
 1614  1616     1   0.1111   0.1111
[ bonds ]
 1614  1617     1    0.153   186188    0.153   186188
[ constraints ] ; from mdp
 1617  1618     1   0.1111   0.1111
[ constraints ] ; from mdp
 1617  1619     1   0.1111   0.1111
[ bonds ]
 1617  1620     1    0.153   186188    0.153   186188
[ constraints ] ; from mdp
 1620  1621     1   0.1111   0.1111
[ constraints ] ; from mdp
 1620  1622     1   0.1111   0.1111
[ bonds ]
 1620  1623     1    0.153   186188    0.153   186188
[ constraints ] ; from mdp
 1623  1624     1   0.1111   0.1111
[ constraints ] ; from mdp
 1623  1625     1   0.1111   0.1111
[ bonds ]
 1623  1626     1    0.153   186188    0.153   186188
[ constraints ] ; from mdp
 1626  1627     1   0.1111   0.1111
[ constraints ] ; from mdp
 1626  1628     1   0.1111   0.1111
[ bonds ]
 1626  1629     1    0.153   186188    0.153   186188
[ constraints ] ; from mdp
 1629  1630     1   0.1111   0.1111
[ constraints ] ; from mdp
 1629  1631     1   0.1111   0.1111
[ bonds ]
 1629  1632     1    0.153   186188    0.153   186188
[ constraints ] ; from mdp
 1632  1633     1   0.1111   0.1111
[ constraints ] ; from mdp
 1632  1634     1   0.1111   0.1111
[ bonds ]
 1632  1635     1    0.153   186188    0.153   186188
[ constraints ] ; from mdp
 1635  1636     1   0.1111   0.1111
[ constraints ] ; from mdp
 1635  1637     1   0.1111   0.1111
[ bonds ]
 1635  1638     1    0.153   186188    0.153   186188
[ constraints ] ; from mdp
 1638  1639     1   0.1111   0.1111
[ constraints ] ; from mdp
 1638  1640     1   0.1111   0.1111
[ bonds ]
 1638  1641     1    0.153   186188    0.153   186188
[ constraints ] ; from mdp
 1641  1642     1   0.1111   0.1111
[ constraints ] ; from mdp
 1641  1643     1   0.1111   0.1111
[ bonds ]
 1641  1644     1   0.1528   186188   0.1528   186188
[ constraints ] ; from mdp
 1644  1645     1   0.1111   0.1111
[ constraints ] ; from mdp
 1644  1646     1   0.1111   0.1111
[ constraints ] ; from mdp
 1644  1647     1   0.1111   0.1111
[ constraints ] ; from mdp
 1648  1649     1   0.1111   0.1111
[ constraints ] ; from mdp
 1648  1650     1   0.1111   0.1111
[ bonds ]
 1648  1651     1    0.153   186188    0.153   186188
[ constraints ] ; from mdp
 1651  1652     1   0.1111   0.1111
[ constraints ] ; from mdp
 1651  1653     1   0.1111   0.1111
[ bonds ]
 1651  1654     1    0.153   186188    0.153   186188
[ constraints ] ; from mdp
 1654  1655     1   0.1111   0.1111
[ constraints ] ; from mdp
 1654  1656     1   0.1111   0.1111
[ bonds ]
 1654  1657     1    0.153   186188    0.153   186188
[ constraints ] ; from mdp
 1657  1658     1   0.1111   0.1111
[ constraints ] ; from mdp
 1657  1659     1   0.1111   0.1111
[ bonds ]
 1657  1660     1    0.153   186188    0.153   186188
[ constraints ] ; from mdp
 1660  1661     1   0.1111   0.1111
[ constraints ] ; from mdp
 1660  1662     1   0.1111   0.1111
[ bonds ]
 1660  1663     1    0.153   186188    0.153   186188
[ constraints ] ; from mdp
 1663  1664     1   0.1111   0.1111
[ constraints ] ; from mdp
 1663  1665     1   0.1111   0.1111
[ bonds ]
 1663  1666     1    0.153   186188    0.153   186188
[ constraints ] ; from mdp
 1666  1667     1   0.1111   0.1111
[ constraints ] ; from mdp
 1666  1668     1   0.1111   0.1111
[ bonds ]
 1666  1669     1    0.153   186188    0.153   186188
[ constraints ] ; from mdp
 1669  1670     1   0.1111   0.1111
[ constraints ] ; from mdp
 1669  1671     1   0.1111   0.1111
[ bonds ]
 1669  1672     1    0.153   186188    0.153   186188
[ constraints ] ; from mdp
 1672  1673     1   0.1111   0.1111
[ constraints ] ; from mdp
 1672  1674     1   0.1111   0.1111
[ bonds ]
 1672  1675     1    0.153   186188    0.153   186188
[ constraints ] ; from mdp
 1675  1676     1   0.1111   0.1111
[ constraints ] ; from mdp
 1675  1677     1   0.1111   0.1111
[ bonds ]
 1675  1678     1    0.153   186188    0.153   186188
[ constraints ] ; from mdp
 1678  1679     1   0.1111   0.1111
[ constraints ] ; from mdp
 1678  1680     1   0.1111   0.1111
[ bonds ]
 1678  1681     1    0.153   186188    0.153   186188
[ constraints ] ; from mdp
 1681  1682     1   0.1111   0.1111
[ constraints ] ; from mdp
 1681  1683     1   0.1111   0.1111
[ bonds ]
 1681  1684     1    0.153   186188    0.153   186188
[ constraints ] ; from mdp
 1684  1685     1   0.1111   0.1111
[ constraints ] ; from mdp
 1684  1686     1   0.1111   0.1111
[ bonds ]
 1684  1687     1   0.1528   186188   0.1528   186188
[ constraints ] ; from mdp
 1687  1688     1   0.1111   0.1111
[ constraints ] ; from mdp
 1687  1689     1   0.1111   0.1111
[ constraints ] ; from mdp
 1687  1690     1   0.1111   0.1111
[ bonds ]
 1691  1692     1    0.151   179912    0.151   179912
[ bonds ]
 1691  1696     1    0.151   179912    0.151   179912
[ bonds ]
 1691  1700     1    0.151   179912    0.151   179912
[ bonds ]
 1691  1704     1    0.151   179912    0.151   179912
[ constraints ] ; from mdp
 1692  1693     1    0.108    0.108
[ constraints ] ; from mdp
 1692  1694     1    0.108    0.108
[ constraints ] ; from mdp
 1692  1695     1    0.108    0.108
[ constraints ] ; from mdp
 1696  1697     1    0.108    0.108
[ constraints ] ; from mdp
 1696  1698     1    0.108    0.108
[ constraints ] ; from mdp
 1696  1699     1    0.108    0.108
[ constraints ] ; from mdp
 1700  1701     1    0.108    0.108
[ constraints ] ; from mdp
 1700  1702     1    0.108    0.108
[ constraints ] ; from mdp
 1700  1703     1    0.108    0.108
[ constraints ] ; from mdp
 1704  1705     1    0.108    0.108
[ constraints ] ; from mdp
 1704  1706     1    0.108    0.108
[ bonds ]
 1704  1707     1    0.153   186188    0.153   186188
[ constraints ] ; from mdp
 1707  1708     1   0.1111   0.1111
[ constraints ] ; from mdp
 1707  1709     1   0.1111   0.1111
[ bonds ]
 1707  1714     1    0.143   284512    0.143   284512
[ bonds ]
 1710  1711     1    0.148   485344    0.148   485344
[ bonds ]
 1710  1712     1    0.148   485344    0.148   485344
[ bonds ]
 1710  1713     1     0.16   225936     0.16   225936
[ bonds ]
 1710  1714     1     0.16   225936     0.16   225936
[ bonds ]
 1713  1715     1    0.143   284512    0.143   284512
[ constraints ] ; from mdp
 1715  1716     1   0.1111   0.1111
[ constraints ] ; from mdp
 1715  1717     1   0.1111   0.1111
[ bonds ]
 1715  1718     1   0.1538   186188   0.1538   186188
[ constraints ] ; from mdp
 1718  1719     1   0.1111   0.1111
[ bonds ]
 1718  1720     1    0.143   284512    0.143   284512
[ bonds ]
 1718  1726     1   0.1538   186188   0.1538   186188
[ bonds ]
 1720  1721     1   0.1334   125520   0.1334   125520
[ bonds ]
 1721  1722     1    0.122   627600    0.122   627600
[ bonds ]
 1721  1723     1   0.1522   167360   0.1522   167360
[ constraints ] ; from mdp
 1723  1724     1   0.1111   0.1111
[ constraints ] ; from mdp
 1723  1725     1   0.1111   0.1111
[ bonds ]
 1723  1735     1    0.153   186188    0.153   186188
[ constraints ] ; from mdp
 1726  1727     1   0.1111   0.1111
[ constraints ] ; from mdp
 1726  1728     1   0.1111   0.1111
[ bonds ]
 1726  1729     1    0.143   284512    0.143   284512
[ bonds ]
 1729  1730     1   0.1334   125520   0.1334   125520
[ bonds ]
 1730  1731     1    0.122   627600    0.122   627600
[ bonds ]
 1730  1732     1   0.1522   167360   0.1522   167360
[ constraints ] ; from mdp
 1732  1733     1   0.1111   0.1111
[ constraints ] ; from mdp
 1732  1734     1   0.1111   0.1111
[ bonds ]
 1732  1778     1    0.153   186188    0.153   186188
[ constraints ] ; from mdp
 1735  1736     1   0.1111   0.1111
[ constraints ] ; from mdp
 1735  1737     1   0.1111   0.1111
[ bonds ]
 1735  1738     1    0.153   186188    0.153   186188
[ constraints ] ; from mdp
 1738  1739     1   0.1111   0.1111
[ constraints ] ; from mdp
 1738  1740     1   0.1111   0.1111
[ bonds ]
 1738  1741     1    0.153   186188    0.153   186188
[ constraints ] ; from mdp
 1741  1742     1   0.1111   0.1111
[ constraints ] ; from mdp
 1741  1743     1   0.1111   0.1111
[ bonds ]
 1741  1744     1    0.153   186188    0.153   186188
[ constraints ] ; from mdp
 1744  1745     1   0.1111   0.1111
[ constraints ] ; from mdp
 1744  1746     1   0.1111   0.1111
[ bonds ]
 1744  1747     1    0.153   186188    0.153   186188
[ constraints ] ; from mdp
 1747  1748     1   0.1111   0.1111
[ constraints ] ; from mdp
 1747  1749     1   0.1111   0.1111
[ bonds ]
 1747  1750     1    0.153   186188    0.153   186188
[ constraints ] ; from mdp
 1750  1751     1   0.1111   0.1111
[ constraints ] ; from mdp
 1750  1752     1   0.1111   0.1111
[ bonds ]
 1750  1753     1    0.153   186188    0.153   186188
[ constraints ] ; from mdp
 1753  1754     1   0.1111   0.1111
[ constraints ] ; from mdp
 1753  1755     1   0.1111   0.1111
[ bonds ]
 1753  1756     1    0.153   186188    0.153   186188
[ constraints ] ; from mdp
 1756  1757     1   0.1111   0.1111
[ constraints ] ; from mdp
 1756  1758     1   0.1111   0.1111
[ bonds ]
 1756  1759     1    0.153   186188    0.153   186188
[ constraints ] ; from mdp
 1759  1760     1   0.1111   0.1111
[ constraints ] ; from mdp
 1759  1761     1   0.1111   0.1111
[ bonds ]
 1759  1762     1    0.153   186188    0.153   186188
[ constraints ] ; from mdp
 1762  1763     1   0.1111   0.1111
[ constraints ] ; from mdp
 1762  1764     1   0.1111   0.1111
[ bonds ]
 1762  1765     1    0.153   186188    0.153   186188
[ constraints ] ; from mdp
 1765  1766     1   0.1111   0.1111
[ constraints ] ; from mdp
 1765  1767     1   0.1111   0.1111
[ bonds ]
 1765  1768     1    0.153   186188    0.153   186188
[ constraints ] ; from mdp
 1768  1769     1   0.1111   0.1111
[ constraints ] ; from mdp
 1768  1770     1   0.1111   0.1111
[ bonds ]
 1768  1771     1    0.153   186188    0.153   186188
[ constraints ] ; from mdp
 1771  1772     1   0.1111   0.1111
[ constraints ] ; from mdp
 1771  1773     1   0.1111   0.1111
[ bonds ]
 1771  1774     1   0.1528   186188   0.1528   186188
[ constraints ] ; from mdp
 1774  1775     1   0.1111   0.1111
[ constraints ] ; from mdp
 1774  1776     1   0.1111   0.1111
[ constraints ] ; from mdp
 1774  1777     1   0.1111   0.1111
[ constraints ] ; from mdp
 1778  1779     1   0.1111   0.1111
[ constraints ] ; from mdp
 1778  1780     1   0.1111   0.1111
[ bonds ]
 1778  1781     1    0.153   186188    0.153   186188
[ constraints ] ; from mdp
 1781  1782     1   0.1111   0.1111
[ constraints ] ; from mdp
 1781  1783     1   0.1111   0.1111
[ bonds ]
 1781  1784     1    0.153   186188    0.153   186188
[ constraints ] ; from mdp
 1784  1785     1   0.1111   0.1111
[ constraints ] ; from mdp
 1784  1786     1   0.1111   0.1111
[ bonds ]
 1784  1787     1    0.153   186188    0.153   186188
[ constraints ] ; from mdp
 1787  1788     1   0.1111   0.1111
[ constraints ] ; from mdp
 1787  1789     1   0.1111   0.1111
[ bonds ]
 1787  1790     1    0.153   186188    0.153   186188
[ constraints ] ; from mdp
 1790  1791     1   0.1111   0.1111
[ constraints ] ; from mdp
 1790  1792     1   0.1111   0.1111
[ bonds ]
 1790  1793     1    0.153   186188    0.153   186188
[ constraints ] ; from mdp
 1793  1794     1   0.1111   0.1111
[ constraints ] ; from mdp
 1793  1795     1   0.1111   0.1111
[ bonds ]
 1793  1796     1    0.153   186188    0.153   186188
[ constraints ] ; from mdp
 1796  1797     1   0.1111   0.1111
[ constraints ] ; from mdp
 1796  1798     1   0.1111   0.1111
[ bonds ]
 1796  1799     1    0.153   186188    0.153   186188
[ constraints ] ; from mdp
 1799  1800     1   0.1111   0.1111
[ constraints ] ; from mdp
 1799  1801     1   0.1111   0.1111
[ bonds ]
 1799  1802     1    0.153   186188    0.153   186188
[ constraints ] ; from mdp
 1802  1803     1   0.1111   0.1111
[ constraints ] ; from mdp
 1802  1804     1   0.1111   0.1111
[ bonds ]
 1802  1805     1    0.153   186188    0.153   186188
[ constraints ] ; from mdp
 1805  1806     1   0.1111   0.1111
[ constraints ] ; from mdp
 1805  1807     1   0.1111   0.1111
[ bonds ]
 1805  1808     1    0.153   186188    0.153   186188
[ constraints ] ; from mdp
 1808  1809     1   0.1111   0.1111
[ constraints ] ; from mdp
 1808  1810     1   0.1111   0.1111
[ bonds ]
 1808  1811     1    0.153   186188    0.153   186188
[ constraints ] ; from mdp
 1811  1812     1   0.1111   0.1111
[ constraints ] ; from mdp
 1811  1813     1   0.1111   0.1111
[ bonds ]
 1811  1814     1    0.153   186188    0.153   186188
[ constraints ] ; from mdp
 1814  1815     1   0.1111   0.1111
[ constraints ] ; from mdp
 1814  1816     1   0.1111   0.1111
[ bonds ]
 1814  1817     1   0.1528   186188   0.1528   186188
[ constraints ] ; from mdp
 1817  1818     1   0.1111   0.1111
[ constraints ] ; from mdp
 1817  1819     1   0.1111   0.1111
[ constraints ] ; from mdp
 1817  1820     1   0.1111   0.1111
[ bonds ]
 1821  1822     1    0.151   179912    0.151   179912
[ bonds ]
 1821  1826     1    0.151   179912    0.151   179912
[ bonds ]
 1821  1830     1    0.151   179912    0.151   179912
[ bonds ]
 1821  1834     1    0.151   179912    0.151   179912
[ constraints ] ; from mdp
 1822  1823     1    0.108    0.108
[ constraints ] ; from mdp
 1822  1824     1    0.108    0.108
[ constraints ] ; from mdp
 1822  1825     1    0.108    0.108
[ constraints ] ; from mdp
 1826  1827     1    0.108    0.108
[ constraints ] ; from mdp
 1826  1828     1    0.108    0.108
[ constraints ] ; from mdp
 1826  1829     1    0.108    0.108
[ constraints ] ; from mdp
 1830  1831     1    0.108    0.108
[ constraints ] ; from mdp
 1830  1832     1    0.108    0.108
[ constraints ] ; from mdp
 1830  1833     1    0.108    0.108
[ constraints ] ; from mdp
 1834  1835     1    0.108    0.108
[ constraints ] ; from mdp
 1834  1836     1    0.108    0.108
[ bonds ]
 1834  1837     1    0.153   186188    0.153   186188
[ constraints ] ; from mdp
 1837  1838     1   0.1111   0.1111
[ constraints ] ; from mdp
 1837  1839     1   0.1111   0.1111
[ bonds ]
 1837  1844     1    0.143   284512    0.143   284512
[ bonds ]
 1840  1841     1    0.148   485344    0.148   485344
[ bonds ]
 1840  1842     1    0.148   485344    0.148   485344
[ bonds ]
 1840  1843     1     0.16   225936     0.16   225936
[ bonds ]
 1840  1844     1     0.16   225936     0.16   225936
[ bonds ]
 1843  1845     1    0.143   284512    0.143   284512
[ constraints ] ; from mdp
 1845  1846     1   0.1111   0.1111
[ constraints ] ; from mdp
 1845  1847     1   0.1111   0.1111
[ bonds ]
 1845  1848     1   0.1538   186188   0.1538   186188
[ constraints ] ; from mdp
 1848  1849     1   0.1111   0.1111
[ bonds ]
 1848  1850     1    0.143   284512    0.143   284512
[ bonds ]
 1848  1856     1   0.1538   186188   0.1538   186188
[ bonds ]
 1850  1851     1   0.1334   125520   0.1334   125520
[ bonds ]
 1851  1852     1    0.122   627600    0.122   627600
[ bonds ]
 1851  1853     1   0.1522   167360   0.1522   167360
[ constraints ] ; from mdp
 1853  1854     1   0.1111   0.1111
[ constraints ] ; from mdp
 1853  1855     1   0.1111   0.1111
[ bonds ]
 1853  1865     1    0.153   186188    0.153   186188
[ constraints ] ; from mdp
 1856  1857     1   0.1111   0.1111
[ constraints ] ; from mdp
 1856  1858     1   0.1111   0.1111
[ bonds ]
 1856  1859     1    0.143   284512    0.143   284512
[ bonds ]
 1859  1860     1   0.1334   125520   0.1334   125520
[ bonds ]
 1860  1861     1    0.122   627600    0.122   627600
[ bonds ]
 1860  1862     1   0.1522   167360   0.1522   167360
[ constraints ] ; from mdp
 1862  1863     1   0.1111   0.1111
[ constraints ] ; from mdp
 1862  1864     1   0.1111   0.1111
[ bonds ]
 1862  1908     1    0.153   186188    0.153   186188
[ constraints ] ; from mdp
 1865  1866     1   0.1111   0.1111
[ constraints ] ; from mdp
 1865  1867     1   0.1111   0.1111
[ bonds ]
 1865  1868     1    0.153   186188    0.153   186188
[ constraints ] ; from mdp
 1868  1869     1   0.1111   0.1111
[ constraints ] ; from mdp
 1868  1870     1   0.1111   0.1111
[ bonds ]
 1868  1871     1    0.153   186188    0.153   186188
[ constraints ] ; from mdp
 1871  1872     1   0.1111   0.1111
[ constraints ] ; from mdp
 1871  1873     1   0.1111   0.1111
[ bonds ]
 1871  1874     1    0.153   186188    0.153   186188
[ constraints ] ; from mdp
 1874  1875     1   0.1111   0.1111
[ constraints ] ; from mdp
 1874  1876     1   0.1111   0.1111
[ bonds ]
 1874  1877     1    0.153   186188    0.153   186188
[ constraints ] ; from mdp
 1877  1878     1   0.1111   0.1111
[ constraints ] ; from mdp
 1877  1879     1   0.1111   0.1111
[ bonds ]
 1877  1880     1    0.153   186188    0.153   186188
[ constraints ] ; from mdp
 1880  1881     1   0.1111   0.1111
[ constraints ] ; from mdp
 1880  1882     1   0.1111   0.1111
[ bonds ]
 1880  1883     1    0.153   186188    0.153   186188
[ constraints ] ; from mdp
 1883  1884     1   0.1111   0.1111
[ constraints ] ; from mdp
 1883  1885     1   0.1111   0.1111
[ bonds ]
 1883  1886     1    0.153   186188    0.153   186188
[ constraints ] ; from mdp
 1886  1887     1   0.1111   0.1111
[ constraints ] ; from mdp
 1886  1888     1   0.1111   0.1111
[ bonds ]
 1886  1889     1    0.153   186188    0.153   186188
[ constraints ] ; from mdp
 1889  1890     1   0.1111   0.1111
[ constraints ] ; from mdp
 1889  1891     1   0.1111   0.1111
[ bonds ]
 1889  1892     1    0.153   186188    0.153   186188
[ constraints ] ; from mdp
 1892  1893     1   0.1111   0.1111
[ constraints ] ; from mdp
 1892  1894     1   0.1111   0.1111
[ bonds ]
 1892  1895     1    0.153   186188    0.153   186188
[ constraints ] ; from mdp
 1895  1896     1   0.1111   0.1111
[ constraints ] ; from mdp
 1895  1897     1   0.1111   0.1111
[ bonds ]
 1895  1898     1    0.153   186188    0.153   186188
[ constraints ] ; from mdp
 1898  1899     1   0.1111   0.1111
[ constraints ] ; from mdp
 1898  1900     1   0.1111   0.1111
[ bonds ]
 1898  1901     1    0.153   186188    0.153   186188
[ constraints ] ; from mdp
 1901  1902     1   0.1111   0.1111
[ constraints ] ; from mdp
 1901  1903     1   0.1111   0.1111
[ bonds ]
 1901  1904     1   0.1528   186188   0.1528   186188
[ constraints ] ; from mdp
 1904  1905     1   0.1111   0.1111
[ constraints ] ; from mdp
 1904  1906     1   0.1111   0.1111
[ constraints ] ; from mdp
 1904  1907     1   0.1111   0.1111
[ constraints ] ; from mdp
 1908  1909     1   0.1111   0.1111
[ constraints ] ; from mdp
 1908  1910     1   0.1111   0.1111
[ bonds ]
 1908  1911     1    0.153   186188    0.153   186188
[ constraints ] ; from mdp
 1911  1912     1   0.1111   0.1111
[ constraints ] ; from mdp
 1911  1913     1   0.1111   0.1111
[ bonds ]
 1911  1914     1    0.153   186188    0.153   186188
[ constraints ] ; from mdp
 1914  1915     1   0.1111   0.1111
[ constraints ] ; from mdp
 1914  1916     1   0.1111   0.1111
[ bonds ]
 1914  1917     1    0.153   186188    0.153   186188
[ constraints ] ; from mdp
 1917  1918     1   0.1111   0.1111
[ constraints ] ; from mdp
 1917  1919     1   0.1111   0.1111
[ bonds ]
 1917  1920     1    0.153   186188    0.153   186188
[ constraints ] ; from mdp
 1920  1921     1   0.1111   0.1111
[ constraints ] ; from mdp
 1920  1922     1   0.1111   0.1111
[ bonds ]
 1920  1923     1    0.153   186188    0.153   186188
[ constraints ] ; from mdp
 1923  1924     1   0.1111   0.1111
[ constraints ] ; from mdp
 1923  1925     1   0.1111   0.1111
[ bonds ]
 1923  1926     1    0.153   186188    0.153   186188
[ constraints ] ; from mdp
 1926  1927     1   0.1111   0.1111
[ constraints ] ; from mdp
 1926  1928     1   0.1111   0.1111
[ bonds ]
 1926  1929     1    0.153   186188    0.153   186188
[ constraints ] ; from mdp
 1929  1930     1   0.1111   0.1111
[ constraints ] ; from mdp
 1929  1931     1   0.1111   0.1111
[ bonds ]
 1929  1932     1    0.153   186188    0.153   186188
[ constraints ] ; from mdp
 1932  1933     1   0.1111   0.1111
[ constraints ] ; from mdp
 1932  1934     1   0.1111   0.1111
[ bonds ]
 1932  1935     1    0.153   186188    0.153   186188
[ constraints ] ; from mdp
 1935  1936     1   0.1111   0.1111
[ constraints ] ; from mdp
 1935  1937     1   0.1111   0.1111
[ bonds ]
 1935  1938     1    0.153   186188    0.153   186188
[ constraints ] ; from mdp
 1938  1939     1   0.1111   0.1111
[ constraints ] ; from mdp
 1938  1940     1   0.1111   0.1111
[ bonds ]
 1938  1941     1    0.153   186188    0.153   186188
[ constraints ] ; from mdp
 1941  1942     1   0.1111   0.1111
[ constraints ] ; from mdp
 1941  1943     1   0.1111   0.1111
[ bonds ]
 1941  1944     1    0.153   186188    0.153   186188
[ constraints ] ; from mdp
 1944  1945     1   0.1111   0.1111
[ constraints ] ; from mdp
 1944  1946     1   0.1111   0.1111
[ bonds ]
 1944  1947     1   0.1528   186188   0.1528   186188
[ constraints ] ; from mdp
 1947  1948     1   0.1111   0.1111
[ constraints ] ; from mdp
 1947  1949     1   0.1111   0.1111
[ constraints ] ; from mdp
 1947  1950     1   0.1111   0.1111
[ bonds ]
 1951  1952     1    0.151   179912    0.151   179912
[ bonds ]
 1951  1956     1    0.151   179912    0.151   179912
[ bonds ]
 1951  1960     1    0.151   179912    0.151   179912
[ bonds ]
 1951  1964     1    0.151   179912    0.151   179912
[ constraints ] ; from mdp
 1952  1953     1    0.108    0.108
[ constraints ] ; from mdp
 1952  1954     1    0.108    0.108
[ constraints ] ; from mdp
 1952  1955     1    0.108    0.108
[ constraints ] ; from mdp
 1956  1957     1    0.108    0.108
[ constraints ] ; from mdp
 1956  1958     1    0.108    0.108
[ constraints ] ; from mdp
 1956  1959     1    0.108    0.108
[ constraints ] ; from mdp
 1960  1961     1    0.108    0.108
[ constraints ] ; from mdp
 1960  1962     1    0.108    0.108
[ constraints ] ; from mdp
 1960  1963     1    0.108    0.108
[ constraints ] ; from mdp
 1964  1965     1    0.108    0.108
[ constraints ] ; from mdp
 1964  1966     1    0.108    0.108
[ bonds ]
 1964  1967     1    0.153   186188    0.153   186188
[ constraints ] ; from mdp
 1967  1968     1   0.1111   0.1111
[ constraints ] ; from mdp
 1967  1969     1   0.1111   0.1111
[ bonds ]
 1967  1974     1    0.143   284512    0.143   284512
[ bonds ]
 1970  1971     1    0.148   485344    0.148   485344
[ bonds ]
 1970  1972     1    0.148   485344    0.148   485344
[ bonds ]
 1970  1973     1     0.16   225936     0.16   225936
[ bonds ]
 1970  1974     1     0.16   225936     0.16   225936
[ bonds ]
 1973  1975     1    0.143   284512    0.143   284512
[ constraints ] ; from mdp
 1975  1976     1   0.1111   0.1111
[ constraints ] ; from mdp
 1975  1977     1   0.1111   0.1111
[ bonds ]
 1975  1978     1   0.1538   186188   0.1538   186188
[ constraints ] ; from mdp
 1978  1979     1   0.1111   0.1111
[ bonds ]
 1978  1980     1    0.143   284512    0.143   284512
[ bonds ]
 1978  1986     1   0.1538   186188   0.1538   186188
[ bonds ]
 1980  1981     1   0.1334   125520   0.1334   125520
[ bonds ]
 1981  1982     1    0.122   627600    0.122   627600
[ bonds ]
 1981  1983     1   0.1522   167360   0.1522   167360
[ constraints ] ; from mdp
 1983  1984     1   0.1111   0.1111
[ constraints ] ; from mdp
 1983  1985     1   0.1111   0.1111
[ bonds ]
 1983  1995     1    0.153   186188    0.153   186188
[ constraints ] ; from mdp
 1986  1987     1   0.1111   0.1111
[ constraints ] ; from mdp
 1986  1988     1   0.1111   0.1111
[ bonds ]
 1986  1989     1    0.143   284512    0.143   284512
[ bonds ]
 1989  1990     1   0.1334   125520   0.1334   125520
[ bonds ]
 1990  1991     1    0.122   627600    0.122   627600
[ bonds ]
 1990  1992     1   0.1522   167360   0.1522   167360
[ constraints ] ; from mdp
 1992  1993     1   0.1111   0.1111
[ constraints ] ; from mdp
 1992  1994     1   0.1111   0.1111
[ bonds ]
 1992  2038     1    0.153   186188    0.153   186188
[ constraints ] ; from mdp
 1995  1996     1   0.1111   0.1111
[ constraints ] ; from mdp
 1995  1997     1   0.1111   0.1111
[ bonds ]
 1995  1998     1    0.153   186188    0.153   186188
[ constraints ] ; from mdp
 1998  1999     1   0.1111   0.1111
[ constraints ] ; from mdp
 1998  2000     1   0.1111   0.1111
[ bonds ]
 1998  2001     1    0.153   186188    0.153   186188
[ constraints ] ; from mdp
 2001  2002     1   0.1111   0.1111
[ constraints ] ; from mdp
 2001  2003     1   0.1111   0.1111
[ bonds ]
 2001  2004     1    0.153   186188    0.153   186188
[ constraints ] ; from mdp
 2004  2005     1   0.1111   0.1111
[ constraints ] ; from mdp
 2004  2006     1   0.1111   0.1111
[ bonds ]
 2004  2007     1    0.153   186188    0.153   186188
[ constraints ] ; from mdp
 2007  2008     1   0.1111   0.1111
[ constraints ] ; from mdp
 2007  2009     1   0.1111   0.1111
[ bonds ]
 2007  2010     1    0.153   186188    0.153   186188
[ constraints ] ; from mdp
 2010  2011     1   0.1111   0.1111
[ constraints ] ; from mdp
 2010  2012     1   0.1111   0.1111
[ bonds ]
 2010  2013     1    0.153   186188    0.153   186188
[ constraints ] ; from mdp
 2013  2014     1   0.1111   0.1111
[ constraints ] ; from mdp
 2013  2015     1   0.1111   0.1111
[ bonds ]
 2013  2016     1    0.153   186188    0.153   186188
[ constraints ] ; from mdp
 2016  2017     1   0.1111   0.1111
[ constraints ] ; from mdp
 2016  2018     1   0.1111   0.1111
[ bonds ]
 2016  2019     1    0.153   186188    0.153   186188
[ constraints ] ; from mdp
 2019  2020     1   0.1111   0.1111
[ constraints ] ; from mdp
 2019  2021     1   0.1111   0.1111
[ bonds ]
 2019  2022     1    0.153   186188    0.153   186188
[ constraints ] ; from mdp
 2022  2023     1   0.1111   0.1111
[ constraints ] ; from mdp
 2022  2024     1   0.1111   0.1111
[ bonds ]
 2022  2025     1    0.153   186188    0.153   186188
[ constraints ] ; from mdp
 2025  2026     1   0.1111   0.1111
[ constraints ] ; from mdp
 2025  2027     1   0.1111   0.1111
[ bonds ]
 2025  2028     1    0.153   186188    0.153   186188
[ constraints ] ; from mdp
 2028  2029     1   0.1111   0.1111
[ constraints ] ; from mdp
 2028  2030     1   0.1111   0.1111
[ bonds ]
 2028  2031     1    0.153   186188    0.153   186188
[ constraints ] ; from mdp
 2031  2032     1   0.1111   0.1111
[ constraints ] ; from mdp
 2031  2033     1   0.1111   0.1111
[ bonds ]
 2031  2034     1   0.1528   186188   0.1528   186188
[ constraints ] ; from mdp
 2034  2035     1   0.1111   0.1111
[ constraints ] ; from mdp
 2034  2036     1   0.1111   0.1111
[ constraints ] ; from mdp
 2034  2037     1   0.1111   0.1111
[ constraints ] ; from mdp
 2038  2039     1   0.1111   0.1111
[ constraints ] ; from mdp
 2038  2040     1   0.1111   0.1111
[ bonds ]
 2038  2041     1    0.153   186188    0.153   186188
[ constraints ] ; from mdp
 2041  2042     1   0.1111   0.1111
[ constraints ] ; from mdp
 2041  2043     1   0.1111   0.1111
[ bonds ]
 2041  2044     1    0.153   186188    0.153   186188
[ constraints ] ; from mdp
 2044  2045     1   0.1111   0.1111
[ constraints ] ; from mdp
 2044  2046     1   0.1111   0.1111
[ bonds ]
 2044  2047     1    0.153   186188    0.153   186188
[ constraints ] ; from mdp
 2047  2048     1   0.1111   0.1111
[ constraints ] ; from mdp
 2047  2049     1   0.1111   0.1111
[ bonds ]
 2047  2050     1    0.153   186188    0.153   186188
[ constraints ] ; from mdp
 2050  2051     1   0.1111   0.1111
[ constraints ] ; from mdp
 2050  2052     1   0.1111   0.1111
[ bonds ]
 2050  2053     1    0.153   186188    0.153   186188
[ constraints ] ; from mdp
 2053  2054     1   0.1111   0.1111
[ constraints ] ; from mdp
 2053  2055     1   0.1111   0.1111
[ bonds ]
 2053  2056     1    0.153   186188    0.153   186188
[ constraints ] ; from mdp
 2056  2057     1   0.1111   0.1111
[ constraints ] ; from mdp
 2056  2058     1   0.1111   0.1111
[ bonds ]
 2056  2059     1    0.153   186188    0.153   186188
[ constraints ] ; from mdp
 2059  2060     1   0.1111   0.1111
[ constraints ] ; from mdp
 2059  2061     1   0.1111   0.1111
[ bonds ]
 2059  2062     1    0.153   186188    0.153   186188
[ constraints ] ; from mdp
 2062  2063     1   0.1111   0.1111
[ constraints ] ; from mdp
 2062  2064     1   0.1111   0.1111
[ bonds ]
 2062  2065     1    0.153   186188    0.153   186188
[ constraints ] ; from mdp
 2065  2066     1   0.1111   0.1111
[ constraints ] ; from mdp
 2065  2067     1   0.1111   0.1111
[ bonds ]
 2065  2068     1    0.153   186188    0.153   186188
[ constraints ] ; from mdp
 2068  2069     1   0.1111   0.1111
[ constraints ] ; from mdp
 2068  2070     1   0.1111   0.1111
[ bonds ]
 2068  2071     1    0.153   186188    0.153   186188
[ constraints ] ; from mdp
 2071  2072     1   0.1111   0.1111
[ constraints ] ; from mdp
 2071  2073     1   0.1111   0.1111
[ bonds ]
 2071  2074     1    0.153   186188    0.153   186188
[ constraints ] ; from mdp
 2074  2075     1   0.1111   0.1111
[ constraints ] ; from mdp
 2074  2076     1   0.1111   0.1111
[ bonds ]
 2074  2077     1   0.1528   186188   0.1528   186188
[ constraints ] ; from mdp
 2077  2078     1   0.1111   0.1111
[ constraints ] ; from mdp
 2077  2079     1   0.1111   0.1111
[ constraints ] ; from mdp
 2077  2080     1   0.1111   0.1111
[ bonds ]
 2081  2082     1    0.151   179912    0.151   179912
[ bonds ]
 2081  2086     1    0.151   179912    0.151   179912
[ bonds ]
 2081  2090     1    0.151   179912    0.151   179912
[ bonds ]
 2081  2094     1    0.151   179912    0.151   179912
[ constraints ] ; from mdp
 2082  2083     1    0.108    0.108
[ constraints ] ; from mdp
 2082  2084     1    0.108    0.108
[ constraints ] ; from mdp
 2082  2085     1    0.108    0.108
[ constraints ] ; from mdp
 2086  2087     1    0.108    0.108
[ constraints ] ; from mdp
 2086  2088     1    0.108    0.108
[ constraints ] ; from mdp
 2086  2089     1    0.108    0.108
[ constraints ] ; from mdp
 2090  2091     1    0.108    0.108
[ constraints ] ; from mdp
 2090  2092     1    0.108    0.108
[ constraints ] ; from mdp
 2090  2093     1    0.108    0.108
[ constraints ] ; from mdp
 2094  2095     1    0.108    0.108
[ constraints ] ; from mdp
 2094  2096     1    0.108    0.108
[ bonds ]
 2094  2097     1    0.153   186188    0.153   186188
[ constraints ] ; from mdp
 2097  2098     1   0.1111   0.1111
[ constraints ] ; from mdp
 2097  2099     1   0.1111   0.1111
[ bonds ]
 2097  2104     1    0.143   284512    0.143   284512
[ bonds ]
 2100  2101     1    0.148   485344    0.148   485344
[ bonds ]
 2100  2102     1    0.148   485344    0.148   485344
[ bonds ]
 2100  2103     1     0.16   225936     0.16   225936
[ bonds ]
 2100  2104     1     0.16   225936     0.16   225936
[ bonds ]
 2103  2105     1    0.143   284512    0.143   284512
[ constraints ] ; from mdp
 2105  2106     1   0.1111   0.1111
[ constraints ] ; from mdp
 2105  2107     1   0.1111   0.1111
[ bonds ]
 2105  2108     1   0.1538   186188   0.1538   186188
[ constraints ] ; from mdp
 2108  2109     1   0.1111   0.1111
[ bonds ]
 2108  2110     1    0.143   284512    0.143   284512
[ bonds ]
 2108  2116     1   0.1538   186188   0.1538   186188
[ bonds ]
 2110  2111     1   0.1334   125520   0.1334   125520
[ bonds ]
 2111  2112     1    0.122   627600    0.122   627600
[ bonds ]
 2111  2113     1   0.1522   167360   0.1522   167360
[ constraints ] ; from mdp
 2113  2114     1   0.1111   0.1111
[ constraints ] ; from mdp
 2113  2115     1   0.1111   0.1111
[ bonds ]
 2113  2125     1    0.153   186188    0.153   186188
[ constraints ] ; from mdp
 2116  2117     1   0.1111   0.1111
[ constraints ] ; from mdp
 2116  2118     1   0.1111   0.1111
[ bonds ]
 2116  2119     1    0.143   284512    0.143   284512
[ bonds ]
 2119  2120     1   0.1334   125520   0.1334   125520
[ bonds ]
 2120  2121     1    0.122   627600    0.122   627600
[ bonds ]
 2120  2122     1   0.1522   167360   0.1522   167360
[ constraints ] ; from mdp
 2122  2123     1   0.1111   0.1111
[ constraints ] ; from mdp
 2122  2124     1   0.1111   0.1111
[ bonds ]
 2122  2168     1    0.153   186188    0.153   186188
[ constraints ] ; from mdp
 2125  2126     1   0.1111   0.1111
[ constraints ] ; from mdp
 2125  2127     1   0.1111   0.1111
[ bonds ]
 2125  2128     1    0.153   186188    0.153   186188
[ constraints ] ; from mdp
 2128  2129     1   0.1111   0.1111
[ constraints ] ; from mdp
 2128  2130     1   0.1111   0.1111
[ bonds ]
 2128  2131     1    0.153   186188    0.153   186188
[ constraints ] ; from mdp
 2131  2132     1   0.1111   0.1111
[ constraints ] ; from mdp
 2131  2133     1   0.1111   0.1111
[ bonds ]
 2131  2134     1    0.153   186188    0.153   186188
[ constraints ] ; from mdp
 2134  2135     1   0.1111   0.1111
[ constraints ] ; from mdp
 2134  2136     1   0.1111   0.1111
[ bonds ]
 2134  2137     1    0.153   186188    0.153   186188
[ constraints ] ; from mdp
 2137  2138     1   0.1111   0.1111
[ constraints ] ; from mdp
 2137  2139     1   0.1111   0.1111
[ bonds ]
 2137  2140     1    0.153   186188    0.153   186188
[ constraints ] ; from mdp
 2140  2141     1   0.1111   0.1111
[ constraints ] ; from mdp
 2140  2142     1   0.1111   0.1111
[ bonds ]
 2140  2143     1    0.153   186188    0.153   186188
[ constraints ] ; from mdp
 2143  2144     1   0.1111   0.1111
[ constraints ] ; from mdp
 2143  2145     1   0.1111   0.1111
[ bonds ]
 2143  2146     1    0.153   186188    0.153   186188
[ constraints ] ; from mdp
 2146  2147     1   0.1111   0.1111
[ constraints ] ; from mdp
 2146  2148     1   0.1111   0.1111
[ bonds ]
 2146  2149     1    0.153   186188    0.153   186188
[ constraints ] ; from mdp
 2149  2150     1   0.1111   0.1111
[ constraints ] ; from mdp
 2149  2151     1   0.1111   0.1111
[ bonds ]
 2149  2152     1    0.153   186188    0.153   186188
[ constraints ] ; from mdp
 2152  2153     1   0.1111   0.1111
[ constraints ] ; from mdp
 2152  2154     1   0.1111   0.1111
[ bonds ]
 2152  2155     1    0.153   186188    0.153   186188
[ constraints ] ; from mdp
 2155  2156     1   0.1111   0.1111
[ constraints ] ; from mdp
 2155  2157     1   0.1111   0.1111
[ bonds ]
 2155  2158     1    0.153   186188    0.153   186188
[ constraints ] ; from mdp
 2158  2159     1   0.1111   0.1111
[ constraints ] ; from mdp
 2158  2160     1   0.1111   0.1111
[ bonds ]
 2158  2161     1    0.153   186188    0.153   186188
[ constraints ] ; from mdp
 2161  2162     1   0.1111   0.1111
[ constraints ] ; from mdp
 2161  2163     1   0.1111   0.1111
[ bonds ]
 2161  2164     1   0.1528   186188   0.1528   186188
[ constraints ] ; from mdp
 2164  2165     1   0.1111   0.1111
[ constraints ] ; from mdp
 2164  2166     1   0.1111   0.1111
[ constraints ] ; from mdp
 2164  2167     1   0.1111   0.1111
[ constraints ] ; from mdp
 2168  2169     1   0.1111   0.1111
[ constraints ] ; from mdp
 2168  2170     1   0.1111   0.1111
[ bonds ]
 2168  2171     1    0.153   186188    0.153   186188
[ constraints ] ; from mdp
 2171  2172     1   0.1111   0.1111
[ constraints ] ; from mdp
 2171  2173     1   0.1111   0.1111
[ bonds ]
 2171  2174     1    0.153   186188    0.153   186188
[ constraints ] ; from mdp
 2174  2175     1   0.1111   0.1111
[ constraints ] ; from mdp
 2174  2176     1   0.1111   0.1111
[ bonds ]
 2174  2177     1    0.153   186188    0.153   186188
[ constraints ] ; from mdp
 2177  2178     1   0.1111   0.1111
[ constraints ] ; from mdp
 2177  2179     1   0.1111   0.1111
[ bonds ]
 2177  2180     1    0.153   186188    0.153   186188
[ constraints ] ; from mdp
 2180  2181     1   0.1111   0.1111
[ constraints ] ; from mdp
 2180  2182     1   0.1111   0.1111
[ bonds ]
 2180  2183     1    0.153   186188    0.153   186188
[ constraints ] ; from mdp
 2183  2184     1   0.1111   0.1111
[ constraints ] ; from mdp
 2183  2185     1   0.1111   0.1111
[ bonds ]
 2183  2186     1    0.153   186188    0.153   186188
[ constraints ] ; from mdp
 2186  2187     1   0.1111   0.1111
[ constraints ] ; from mdp
 2186  2188     1   0.1111   0.1111
[ bonds ]
 2186  2189     1    0.153   186188    0.153   186188
[ constraints ] ; from mdp
 2189  2190     1   0.1111   0.1111
[ constraints ] ; from mdp
 2189  2191     1   0.1111   0.1111
[ bonds ]
 2189  2192     1    0.153   186188    0.153   186188
[ constraints ] ; from mdp
 2192  2193     1   0.1111   0.1111
[ constraints ] ; from mdp
 2192  2194     1   0.1111   0.1111
[ bonds ]
 2192  2195     1    0.153   186188    0.153   186188
[ constraints ] ; from mdp
 2195  2196     1   0.1111   0.1111
[ constraints ] ; from mdp
 2195  2197     1   0.1111   0.1111
[ bonds ]
 2195  2198     1    0.153   186188    0.153   186188
[ constraints ] ; from mdp
 2198  2199     1   0.1111   0.1111
[ constraints ] ; from mdp
 2198  2200     1   0.1111   0.1111
[ bonds ]
 2198  2201     1    0.153   186188    0.153   186188
[ constraints ] ; from mdp
 2201  2202     1   0.1111   0.1111
[ constraints ] ; from mdp
 2201  2203     1   0.1111   0.1111
[ bonds ]
 2201  2204     1    0.153   186188    0.153   186188
[ constraints ] ; from mdp
 2204  2205     1   0.1111   0.1111
[ constraints ] ; from mdp
 2204  2206     1   0.1111   0.1111
[ bonds ]
 2204  2207     1   0.1528   186188   0.1528   186188
[ constraints ] ; from mdp
 2207  2208     1   0.1111   0.1111
[ constraints ] ; from mdp
 2207  2209     1   0.1111   0.1111
[ constraints ] ; from mdp
 2207  2210     1   0.1111   0.1111
[ bonds ]
 2211  2212     1    0.151   179912    0.151   179912
[ bonds ]
 2211  2216     1    0.151   179912    0.151   179912
[ bonds ]
 2211  2220     1    0.151   179912    0.151   179912
[ bonds ]
 2211  2224     1    0.151   179912    0.151   179912
[ constraints ] ; from mdp
 2212  2213     1    0.108    0.108
[ constraints ] ; from mdp
 2212  2214     1    0.108    0.108
[ constraints ] ; from mdp
 2212  2215     1    0.108    0.108
[ constraints ] ; from mdp
 2216  2217     1    0.108    0.108
[ constraints ] ; from mdp
 2216  2218     1    0.108    0.108
[ constraints ] ; from mdp
 2216  2219     1    0.108    0.108
[ constraints ] ; from mdp
 2220  2221     1    0.108    0.108
[ constraints ] ; from mdp
 2220  2222     1    0.108    0.108
[ constraints ] ; from mdp
 2220  2223     1    0.108    0.108
[ constraints ] ; from mdp
 2224  2225     1    0.108    0.108
[ constraints ] ; from mdp
 2224  2226     1    0.108    0.108
[ bonds ]
 2224  2227     1    0.153   186188    0.153   186188
[ constraints ] ; from mdp
 2227  2228     1   0.1111   0.1111
[ constraints ] ; from mdp
 2227  2229     1   0.1111   0.1111
[ bonds ]
 2227  2234     1    0.143   284512    0.143   284512
[ bonds ]
 2230  2231     1    0.148   485344    0.148   485344
[ bonds ]
 2230  2232     1    0.148   485344    0.148   485344
[ bonds ]
 2230  2233     1     0.16   225936     0.16   225936
[ bonds ]
 2230  2234     1     0.16   225936     0.16   225936
[ bonds ]
 2233  2235     1    0.143   284512    0.143   284512
[ constraints ] ; from mdp
 2235  2236     1   0.1111   0.1111
[ constraints ] ; from mdp
 2235  2237     1   0.1111   0.1111
[ bonds ]
 2235  2238     1   0.1538   186188   0.1538   186188
[ constraints ] ; from mdp
 2238  2239     1   0.1111   0.1111
[ bonds ]
 2238  2240     1    0.143   284512    0.143   284512
[ bonds ]
 2238  2246     1   0.1538   186188   0.1538   186188
[ bonds ]
 2240  2241     1   0.1334   125520   0.1334   125520
[ bonds ]
 2241  2242     1    0.122   627600    0.122   627600
[ bonds ]
 2241  2243     1   0.1522   167360   0.1522   167360
[ constraints ] ; from mdp
 2243  2244     1   0.1111   0.1111
[ constraints ] ; from mdp
 2243  2245     1   0.1111   0.1111
[ bonds ]
 2243  2255     1    0.153   186188    0.153   186188
[ constraints ] ; from mdp
 2246  2247     1   0.1111   0.1111
[ constraints ] ; from mdp
 2246  2248     1   0.1111   0.1111
[ bonds ]
 2246  2249     1    0.143   284512    0.143   284512
[ bonds ]
 2249  2250     1   0.1334   125520   0.1334   125520
[ bonds ]
 2250  2251     1    0.122   627600    0.122   627600
[ bonds ]
 2250  2252     1   0.1522   167360   0.1522   167360
[ constraints ] ; from mdp
 2252  2253     1   0.1111   0.1111
[ constraints ] ; from mdp
 2252  2254     1   0.1111   0.1111
[ bonds ]
 2252  2298     1    0.153   186188    0.153   186188
[ constraints ] ; from mdp
 2255  2256     1   0.1111   0.1111
[ constraints ] ; from mdp
 2255  2257     1   0.1111   0.1111
[ bonds ]
 2255  2258     1    0.153   186188    0.153   186188
[ constraints ] ; from mdp
 2258  2259     1   0.1111   0.1111
[ constraints ] ; from mdp
 2258  2260     1   0.1111   0.1111
[ bonds ]
 2258  2261     1    0.153   186188    0.153   186188
[ constraints ] ; from mdp
 2261  2262     1   0.1111   0.1111
[ constraints ] ; from mdp
 2261  2263     1   0.1111   0.1111
[ bonds ]
 2261  2264     1    0.153   186188    0.153   186188
[ constraints ] ; from mdp
 2264  2265     1   0.1111   0.1111
[ constraints ] ; from mdp
 2264  2266     1   0.1111   0.1111
[ bonds ]
 2264  2267     1    0.153   186188    0.153   186188
[ constraints ] ; from mdp
 2267  2268     1   0.1111   0.1111
[ constraints ] ; from mdp
 2267  2269     1   0.1111   0.1111
[ bonds ]
 2267  2270     1    0.153   186188    0.153   186188
[ constraints ] ; from mdp
 2270  2271     1   0.1111   0.1111
[ constraints ] ; from mdp
 2270  2272     1   0.1111   0.1111
[ bonds ]
 2270  2273     1    0.153   186188    0.153   186188
[ constraints ] ; from mdp
 2273  2274     1   0.1111   0.1111
[ constraints ] ; from mdp
 2273  2275     1   0.1111   0.1111
[ bonds ]
 2273  2276     1    0.153   186188    0.153   186188
[ constraints ] ; from mdp
 2276  2277     1   0.1111   0.1111
[ constraints ] ; from mdp
 2276  2278     1   0.1111   0.1111
[ bonds ]
 2276  2279     1    0.153   186188    0.153   186188
[ constraints ] ; from mdp
 2279  2280     1   0.1111   0.1111
[ constraints ] ; from mdp
 2279  2281     1   0.1111   0.1111
[ bonds ]
 2279  2282     1    0.153   186188    0.153   186188
[ constraints ] ; from mdp
 2282  2283     1   0.1111   0.1111
[ constraints ] ; from mdp
 2282  2284     1   0.1111   0.1111
[ bonds ]
 2282  2285     1    0.153   186188    0.153   186188
[ constraints ] ; from mdp
 2285  2286     1   0.1111   0.1111
[ constraints ] ; from mdp
 2285  2287     1   0.1111   0.1111
[ bonds ]
 2285  2288     1    0.153   186188    0.153   186188
[ constraints ] ; from mdp
 2288  2289     1   0.1111   0.1111
[ constraints ] ; from mdp
 2288  2290     1   0.1111   0.1111
[ bonds ]
 2288  2291     1    0.153   186188    0.153   186188
[ constraints ] ; from mdp
 2291  2292     1   0.1111   0.1111
[ constraints ] ; from mdp
 2291  2293     1   0.1111   0.1111
[ bonds ]
 2291  2294     1   0.1528   186188   0.1528   186188
[ constraints ] ; from mdp
 2294  2295     1   0.1111   0.1111
[ constraints ] ; from mdp
 2294  2296     1   0.1111   0.1111
[ constraints ] ; from mdp
 2294  2297     1   0.1111   0.1111
[ constraints ] ; from mdp
 2298  2299     1   0.1111   0.1111
[ constraints ] ; from mdp
 2298  2300     1   0.1111   0.1111
[ bonds ]
 2298  2301     1    0.153   186188    0.153   186188
[ constraints ] ; from mdp
 2301  2302     1   0.1111   0.1111
[ constraints ] ; from mdp
 2301  2303     1   0.1111   0.1111
[ bonds ]
 2301  2304     1    0.153   186188    0.153   186188
[ constraints ] ; from mdp
 2304  2305     1   0.1111   0.1111
[ constraints ] ; from mdp
 2304  2306     1   0.1111   0.1111
[ bonds ]
 2304  2307     1    0.153   186188    0.153   186188
[ constraints ] ; from mdp
 2307  2308     1   0.1111   0.1111
[ constraints ] ; from mdp
 2307  2309     1   0.1111   0.1111
[ bonds ]
 2307  2310     1    0.153   186188    0.153   186188
[ constraints ] ; from mdp
 2310  2311     1   0.1111   0.1111
[ constraints ] ; from mdp
 2310  2312     1   0.1111   0.1111
[ bonds ]
 2310  2313     1    0.153   186188    0.153   186188
[ constraints ] ; from mdp
 2313  2314     1   0.1111   0.1111
[ constraints ] ; from mdp
 2313  2315     1   0.1111   0.1111
[ bonds ]
 2313  2316     1    0.153   186188    0.153   186188
[ constraints ] ; from mdp
 2316  2317     1   0.1111   0.1111
[ constraints ] ; from mdp
 2316  2318     1   0.1111   0.1111
[ bonds ]
 2316  2319     1    0.153   186188    0.153   186188
[ constraints ] ; from mdp
 2319  2320     1   0.1111   0.1111
[ constraints ] ; from mdp
 2319  2321     1   0.1111   0.1111
[ bonds ]
 2319  2322     1    0.153   186188    0.153   186188
[ constraints ] ; from mdp
 2322  2323     1   0.1111   0.1111
[ constraints ] ; from mdp
 2322  2324     1   0.1111   0.1111
[ bonds ]
 2322  2325     1    0.153   186188    0.153   186188
[ constraints ] ; from mdp
 2325  2326     1   0.1111   0.1111
[ constraints ] ; from mdp
 2325  2327     1   0.1111   0.1111
[ bonds ]
 2325  2328     1    0.153   186188    0.153   186188
[ constraints ] ; from mdp
 2328  2329     1   0.1111   0.1111
[ constraints ] ; from mdp
 2328  2330     1   0.1111   0.1111
[ bonds ]
 2328  2331     1    0.153   186188    0.153   186188
[ constraints ] ; from mdp
 2331  2332     1   0.1111   0.1111
[ constraints ] ; from mdp
 2331  2333     1   0.1111   0.1111
[ bonds ]
 2331  2334     1    0.153   186188    0.153   186188
[ constraints ] ; from mdp
 2334  2335     1   0.1111   0.1111
[ constraints ] ; from mdp
 2334  2336     1   0.1111   0.1111
[ bonds ]
 2334  2337     1   0.1528   186188   0.1528   186188
[ constraints ] ; from mdp
 2337  2338     1   0.1111   0.1111
[ constraints ] ; from mdp
 2337  2339     1   0.1111   0.1111
[ constraints ] ; from mdp
 2337  2340     1   0.1111   0.1111
[ bonds ]
 2341  2342     1    0.151   179912    0.151   179912
[ bonds ]
 2341  2346     1    0.151   179912    0.151   179912
[ bonds ]
 2341  2350     1    0.151   179912    0.151   179912
[ bonds ]
 2341  2354     1    0.151   179912    0.151   179912
[ constraints ] ; from mdp
 2342  2343     1    0.108    0.108
[ constraints ] ; from mdp
 2342  2344     1    0.108    0.108
[ constraints ] ; from mdp
 2342  2345     1    0.108    0.108
[ constraints ] ; from mdp
 2346  2347     1    0.108    0.108
[ constraints ] ; from mdp
 2346  2348     1    0.108    0.108
[ constraints ] ; from mdp
 2346  2349     1    0.108    0.108
[ constraints ] ; from mdp
 2350  2351     1    0.108    0.108
[ constraints ] ; from mdp
 2350  2352     1    0.108    0.108
[ constraints ] ; from mdp
 2350  2353     1    0.108    0.108
[ constraints ] ; from mdp
 2354  2355     1    0.108    0.108
[ constraints ] ; from mdp
 2354  2356     1    0.108    0.108
[ bonds ]
 2354  2357     1    0.153   186188    0.153   186188
[ constraints ] ; from mdp
 2357  2358     1   0.1111   0.1111
[ constraints ] ; from mdp
 2357  2359     1   0.1111   0.1111
[ bonds ]
 2357  2364     1    0.143   284512    0.143   284512
[ bonds ]
 2360  2361     1    0.148   485344    0.148   485344
[ bonds ]
 2360  2362     1    0.148   485344    0.148   485344
[ bonds ]
 2360  2363     1     0.16   225936     0.16   225936
[ bonds ]
 2360  2364     1     0.16   225936     0.16   225936
[ bonds ]
 2363  2365     1    0.143   284512    0.143   284512
[ constraints ] ; from mdp
 2365  2366     1   0.1111   0.1111
[ constraints ] ; from mdp
 2365  2367     1   0.1111   0.1111
[ bonds ]
 2365  2368     1   0.1538   186188   0.1538   186188
[ constraints ] ; from mdp
 2368  2369     1   0.1111   0.1111
[ bonds ]
 2368  2370     1    0.143   284512    0.143   284512
[ bonds ]
 2368  2376     1   0.1538   186188   0.1538   186188
[ bonds ]
 2370  2371     1   0.1334   125520   0.1334   125520
[ bonds ]
 2371  2372     1    0.122   627600    0.122   627600
[ bonds ]
 2371  2373     1   0.1522   167360   0.1522   167360
[ constraints ] ; from mdp
 2373  2374     1   0.1111   0.1111
[ constraints ] ; from mdp
 2373  2375     1   0.1111   0.1111
[ bonds ]
 2373  2385     1    0.153   186188    0.153   186188
[ constraints ] ; from mdp
 2376  2377     1   0.1111   0.1111
[ constraints ] ; from mdp
 2376  2378     1   0.1111   0.1111
[ bonds ]
 2376  2379     1    0.143   284512    0.143   284512
[ bonds ]
 2379  2380     1   0.1334   125520   0.1334   125520
[ bonds ]
 2380  2381     1    0.122   627600    0.122   627600
[ bonds ]
 2380  2382     1   0.1522   167360   0.1522   167360
[ constraints ] ; from mdp
 2382  2383     1   0.1111   0.1111
[ constraints ] ; from mdp
 2382  2384     1   0.1111   0.1111
[ bonds ]
 2382  2428     1    0.153   186188    0.153   186188
[ constraints ] ; from mdp
 2385  2386     1   0.1111   0.1111
[ constraints ] ; from mdp
 2385  2387     1   0.1111   0.1111
[ bonds ]
 2385  2388     1    0.153   186188    0.153   186188
[ constraints ] ; from mdp
 2388  2389     1   0.1111   0.1111
[ constraints ] ; from mdp
 2388  2390     1   0.1111   0.1111
[ bonds ]
 2388  2391     1    0.153   186188    0.153   186188
[ constraints ] ; from mdp
 2391  2392     1   0.1111   0.1111
[ constraints ] ; from mdp
 2391  2393     1   0.1111   0.1111
[ bonds ]
 2391  2394     1    0.153   186188    0.153   186188
[ constraints ] ; from mdp
 2394  2395     1   0.1111   0.1111
[ constraints ] ; from mdp
 2394  2396     1   0.1111   0.1111
[ bonds ]
 2394  2397     1    0.153   186188    0.153   186188
[ constraints ] ; from mdp
 2397  2398     1   0.1111   0.1111
[ constraints ] ; from mdp
 2397  2399     1   0.1111   0.1111
[ bonds ]
 2397  2400     1    0.153   186188    0.153   186188
[ constraints ] ; from mdp
 2400  2401     1   0.1111   0.1111
[ constraints ] ; from mdp
 2400  2402     1   0.1111   0.1111
[ bonds ]
 2400  2403     1    0.153   186188    0.153   186188
[ constraints ] ; from mdp
 2403  2404     1   0.1111   0.1111
[ constraints ] ; from mdp
 2403  2405     1   0.1111   0.1111
[ bonds ]
 2403  2406     1    0.153   186188    0.153   186188
[ constraints ] ; from mdp
 2406  2407     1   0.1111   0.1111
[ constraints ] ; from mdp
 2406  2408     1   0.1111   0.1111
[ bonds ]
 2406  2409     1    0.153   186188    0.153   186188
[ constraints ] ; from mdp
 2409  2410     1   0.1111   0.1111
[ constraints ] ; from mdp
 2409  2411     1   0.1111   0.1111
[ bonds ]
 2409  2412     1    0.153   186188    0.153   186188
[ constraints ] ; from mdp
 2412  2413     1   0.1111   0.1111
[ constraints ] ; from mdp
 2412  2414     1   0.1111   0.1111
[ bonds ]
 2412  2415     1    0.153   186188    0.153   186188
[ constraints ] ; from mdp
 2415  2416     1   0.1111   0.1111
[ constraints ] ; from mdp
 2415  2417     1   0.1111   0.1111
[ bonds ]
 2415  2418     1    0.153   186188    0.153   186188
[ constraints ] ; from mdp
 2418  2419     1   0.1111   0.1111
[ constraints ] ; from mdp
 2418  2420     1   0.1111   0.1111
[ bonds ]
 2418  2421     1    0.153   186188    0.153   186188
[ constraints ] ; from mdp
 2421  2422     1   0.1111   0.1111
[ constraints ] ; from mdp
 2421  2423     1   0.1111   0.1111
[ bonds ]
 2421  2424     1   0.1528   186188   0.1528   186188
[ constraints ] ; from mdp
 2424  2425     1   0.1111   0.1111
[ constraints ] ; from mdp
 2424  2426     1   0.1111   0.1111
[ constraints ] ; from mdp
 2424  2427     1   0.1111   0.1111
[ constraints ] ; from mdp
 2428  2429     1   0.1111   0.1111
[ constraints ] ; from mdp
 2428  2430     1   0.1111   0.1111
[ bonds ]
 2428  2431     1    0.153   186188    0.153   186188
[ constraints ] ; from mdp
 2431  2432     1   0.1111   0.1111
[ constraints ] ; from mdp
 2431  2433     1   0.1111   0.1111
[ bonds ]
 2431  2434     1    0.153   186188    0.153   186188
[ constraints ] ; from mdp
 2434  2435     1   0.1111   0.1111
[ constraints ] ; from mdp
 2434  2436     1   0.1111   0.1111
[ bonds ]
 2434  2437     1    0.153   186188    0.153   186188
[ constraints ] ; from mdp
 2437  2438     1   0.1111   0.1111
[ constraints ] ; from mdp
 2437  2439     1   0.1111   0.1111
[ bonds ]
 2437  2440     1    0.153   186188    0.153   186188
[ constraints ] ; from mdp
 2440  2441     1   0.1111   0.1111
[ constraints ] ; from mdp
 2440  2442     1   0.1111   0.1111
[ bonds ]
 2440  2443     1    0.153   186188    0.153   186188
[ constraints ] ; from mdp
 2443  2444     1   0.1111   0.1111
[ constraints ] ; from mdp
 2443  2445     1   0.1111   0.1111
[ bonds ]
 2443  2446     1    0.153   186188    0.153   186188
[ constraints ] ; from mdp
 2446  2447     1   0.1111   0.1111
[ constraints ] ; from mdp
 2446  2448     1   0.1111   0.1111
[ bonds ]
 2446  2449     1    0.153   186188    0.153   186188
[ constraints ] ; from mdp
 2449  2450     1   0.1111   0.1111
[ constraints ] ; from mdp
 2449  2451     1   0.1111   0.1111
[ bonds ]
 2449  2452     1    0.153   186188    0.153   186188
[ constraints ] ; from mdp
 2452  2453     1   0.1111   0.1111
[ constraints ] ; from mdp
 2452  2454     1   0.1111   0.1111
[ bonds ]
 2452  2455     1    0.153   186188    0.153   186188
[ constraints ] ; from mdp
 2455  2456     1   0.1111   0.1111
[ constraints ] ; from mdp
 2455  2457     1   0.1111   0.1111
[ bonds ]
 2455  2458     1    0.153   186188    0.153   186188
[ constraints ] ; from mdp
 2458  2459     1   0.1111   0.1111
[ constraints ] ; from mdp
 2458  2460     1   0.1111   0.1111
[ bonds ]
 2458  2461     1    0.153   186188    0.153   186188
[ constraints ] ; from mdp
 2461  2462     1   0.1111   0.1111
[ constraints ] ; from mdp
 2461  2463     1   0.1111   0.1111
[ bonds ]
 2461  2464     1    0.153   186188    0.153   186188
[ constraints ] ; from mdp
 2464  2465     1   0.1111   0.1111
[ constraints ] ; from mdp
 2464  2466     1   0.1111   0.1111
[ bonds ]
 2464  2467     1   0.1528   186188   0.1528   186188
[ constraints ] ; from mdp
 2467  2468     1   0.1111   0.1111
[ constraints ] ; from mdp
 2467  2469     1   0.1111   0.1111
[ constraints ] ; from mdp
 2467  2470     1   0.1111   0.1111
[ bonds ]
 2471  2472     1    0.151   179912    0.151   179912
[ bonds ]
 2471  2476     1    0.151   179912    0.151   179912
[ bonds ]
 2471  2480     1    0.151   179912    0.151   179912
[ bonds ]
 2471  2484     1    0.151   179912    0.151   179912
[ constraints ] ; from mdp
 2472  2473     1    0.108    0.108
[ constraints ] ; from mdp
 2472  2474     1    0.108    0.108
[ constraints ] ; from mdp
 2472  2475     1    0.108    0.108
[ constraints ] ; from mdp
 2476  2477     1    0.108    0.108
[ constraints ] ; from mdp
 2476  2478     1    0.108    0.108
[ constraints ] ; from mdp
 2476  2479     1    0.108    0.108
[ constraints ] ; from mdp
 2480  2481     1    0.108    0.108
[ constraints ] ; from mdp
 2480  2482     1    0.108    0.108
[ constraints ] ; from mdp
 2480  2483     1    0.108    0.108
[ constraints ] ; from mdp
 2484  2485     1    0.108    0.108
[ constraints ] ; from mdp
 2484  2486     1    0.108    0.108
[ bonds ]
 2484  2487     1    0.153   186188    0.153   186188
[ constraints ] ; from mdp
 2487  2488     1   0.1111   0.1111
[ constraints ] ; from mdp
 2487  2489     1   0.1111   0.1111
[ bonds ]
 2487  2494     1    0.143   284512    0.143   284512
[ bonds ]
 2490  2491     1    0.148   485344    0.148   485344
[ bonds ]
 2490  2492     1    0.148   485344    0.148   485344
[ bonds ]
 2490  2493     1     0.16   225936     0.16   225936
[ bonds ]
 2490  2494     1     0.16   225936     0.16   225936
[ bonds ]
 2493  2495     1    0.143   284512    0.143   284512
[ constraints ] ; from mdp
 2495  2496     1   0.1111   0.1111
[ constraints ] ; from mdp
 2495  2497     1   0.1111   0.1111
[ bonds ]
 2495  2498     1   0.1538   186188   0.1538   186188
[ constraints ] ; from mdp
 2498  2499     1   0.1111   0.1111
[ bonds ]
 2498  2500     1    0.143   284512    0.143   284512
[ bonds ]
 2498  2506     1   0.1538   186188   0.1538   186188
[ bonds ]
 2500  2501     1   0.1334   125520   0.1334   125520
[ bonds ]
 2501  2502     1    0.122   627600    0.122   627600
[ bonds ]
 2501  2503     1   0.1522   167360   0.1522   167360
[ constraints ] ; from mdp
 2503  2504     1   0.1111   0.1111
[ constraints ] ; from mdp
 2503  2505     1   0.1111   0.1111
[ bonds ]
 2503  2515     1    0.153   186188    0.153   186188
[ constraints ] ; from mdp
 2506  2507     1   0.1111   0.1111
[ constraints ] ; from mdp
 2506  2508     1   0.1111   0.1111
[ bonds ]
 2506  2509     1    0.143   284512    0.143   284512
[ bonds ]
 2509  2510     1   0.1334   125520   0.1334   125520
[ bonds ]
 2510  2511     1    0.122   627600    0.122   627600
[ bonds ]
 2510  2512     1   0.1522   167360   0.1522   167360
[ constraints ] ; from mdp
 2512  2513     1   0.1111   0.1111
[ constraints ] ; from mdp
 2512  2514     1   0.1111   0.1111
[ bonds ]
 2512  2558     1    0.153   186188    0.153   186188
[ constraints ] ; from mdp
 2515  2516     1   0.1111   0.1111
[ constraints ] ; from mdp
 2515  2517     1   0.1111   0.1111
[ bonds ]
 2515  2518     1    0.153   186188    0.153   186188
[ constraints ] ; from mdp
 2518  2519     1   0.1111   0.1111
[ constraints ] ; from mdp
 2518  2520     1   0.1111   0.1111
[ bonds ]
 2518  2521     1    0.153   186188    0.153   186188
[ constraints ] ; from mdp
 2521  2522     1   0.1111   0.1111
[ constraints ] ; from mdp
 2521  2523     1   0.1111   0.1111
[ bonds ]
 2521  2524     1    0.153   186188    0.153   186188
[ constraints ] ; from mdp
 2524  2525     1   0.1111   0.1111
[ constraints ] ; from mdp
 2524  2526     1   0.1111   0.1111
[ bonds ]
 2524  2527     1    0.153   186188    0.153   186188
[ constraints ] ; from mdp
 2527  2528     1   0.1111   0.1111
[ constraints ] ; from mdp
 2527  2529     1   0.1111   0.1111
[ bonds ]
 2527  2530     1    0.153   186188    0.153   186188
[ constraints ] ; from mdp
 2530  2531     1   0.1111   0.1111
[ constraints ] ; from mdp
 2530  2532     1   0.1111   0.1111
[ bonds ]
 2530  2533     1    0.153   186188    0.153   186188
[ constraints ] ; from mdp
 2533  2534     1   0.1111   0.1111
[ constraints ] ; from mdp
 2533  2535     1   0.1111   0.1111
[ bonds ]
 2533  2536     1    0.153   186188    0.153   186188
[ constraints ] ; from mdp
 2536  2537     1   0.1111   0.1111
[ constraints ] ; from mdp
 2536  2538     1   0.1111   0.1111
[ bonds ]
 2536  2539     1    0.153   186188    0.153   186188
[ constraints ] ; from mdp
 2539  2540     1   0.1111   0.1111
[ constraints ] ; from mdp
 2539  2541     1   0.1111   0.1111
[ bonds ]
 2539  2542     1    0.153   186188    0.153   186188
[ constraints ] ; from mdp
 2542  2543     1   0.1111   0.1111
[ constraints ] ; from mdp
 2542  2544     1   0.1111   0.1111
[ bonds ]
 2542  2545     1    0.153   186188    0.153   186188
[ constraints ] ; from mdp
 2545  2546     1   0.1111   0.1111
[ constraints ] ; from mdp
 2545  2547     1   0.1111   0.1111
[ bonds ]
 2545  2548     1    0.153   186188    0.153   186188
[ constraints ] ; from mdp
 2548  2549     1   0.1111   0.1111
[ constraints ] ; from mdp
 2548  2550     1   0.1111   0.1111
[ bonds ]
 2548  2551     1    0.153   186188    0.153   186188
[ constraints ] ; from mdp
 2551  2552     1   0.1111   0.1111
[ constraints ] ; from mdp
 2551  2553     1   0.1111   0.1111
[ bonds ]
 2551  2554     1   0.1528   186188   0.1528   186188
[ constraints ] ; from mdp
 2554  2555     1   0.1111   0.1111
[ constraints ] ; from mdp
 2554  2556     1   0.1111   0.1111
[ constraints ] ; from mdp
 2554  2557     1   0.1111   0.1111
[ constraints ] ; from mdp
 2558  2559     1   0.1111   0.1111
[ constraints ] ; from mdp
 2558  2560     1   0.1111   0.1111
[ bonds ]
 2558  2561     1    0.153   186188    0.153   186188
[ constraints ] ; from mdp
 2561  2562     1   0.1111   0.1111
[ constraints ] ; from mdp
 2561  2563     1   0.1111   0.1111
[ bonds ]
 2561  2564     1    0.153   186188    0.153   186188
[ constraints ] ; from mdp
 2564  2565     1   0.1111   0.1111
[ constraints ] ; from mdp
 2564  2566     1   0.1111   0.1111
[ bonds ]
 2564  2567     1    0.153   186188    0.153   186188
[ constraints ] ; from mdp
 2567  2568     1   0.1111   0.1111
[ constraints ] ; from mdp
 2567  2569     1   0.1111   0.1111
[ bonds ]
 2567  2570     1    0.153   186188    0.153   186188
[ constraints ] ; from mdp
 2570  2571     1   0.1111   0.1111
[ constraints ] ; from mdp
 2570  2572     1   0.1111   0.1111
[ bonds ]
 2570  2573     1    0.153   186188    0.153   186188
[ constraints ] ; from mdp
 2573  2574     1   0.1111   0.1111
[ constraints ] ; from mdp
 2573  2575     1   0.1111   0.1111
[ bonds ]
 2573  2576     1    0.153   186188    0.153   186188
[ constraints ] ; from mdp
 2576  2577     1   0.1111   0.1111
[ constraints ] ; from mdp
 2576  2578     1   0.1111   0.1111
[ bonds ]
 2576  2579     1    0.153   186188    0.153   186188
[ constraints ] ; from mdp
 2579  2580     1   0.1111   0.1111
[ constraints ] ; from mdp
 2579  2581     1   0.1111   0.1111
[ bonds ]
 2579  2582     1    0.153   186188    0.153   186188
[ constraints ] ; from mdp
 2582  2583     1   0.1111   0.1111
[ constraints ] ; from mdp
 2582  2584     1   0.1111   0.1111
[ bonds ]
 2582  2585     1    0.153   186188    0.153   186188
[ constraints ] ; from mdp
 2585  2586     1   0.1111   0.1111
[ constraints ] ; from mdp
 2585  2587     1   0.1111   0.1111
[ bonds ]
 2585  2588     1    0.153   186188    0.153   186188
[ constraints ] ; from mdp
 2588  2589     1   0.1111   0.1111
[ constraints ] ; from mdp
 2588  2590     1   0.1111   0.1111
[ bonds ]
 2588  2591     1    0.153   186188    0.153   186188
[ constraints ] ; from mdp
 2591  2592     1   0.1111   0.1111
[ constraints ] ; from mdp
 2591  2593     1   0.1111   0.1111
[ bonds ]
 2591  2594     1    0.153   186188    0.153   186188
[ constraints ] ; from mdp
 2594  2595     1   0.1111   0.1111
[ constraints ] ; from mdp
 2594  2596     1   0.1111   0.1111
[ bonds ]
 2594  2597     1   0.1528   186188   0.1528   186188
[ constraints ] ; from mdp
 2597  2598     1   0.1111   0.1111
[ constraints ] ; from mdp
 2597  2599     1   0.1111   0.1111
[ constraints ] ; from mdp
 2597  2600     1   0.1111   0.1111
[ bonds ]
 2601  2602     1    0.151   179912    0.151   179912
[ bonds ]
 2601  2606     1    0.151   179912    0.151   179912
[ bonds ]
 2601  2610     1    0.151   179912    0.151   179912
[ bonds ]
 2601  2614     1    0.151   179912    0.151   179912
[ constraints ] ; from mdp
 2602  2603     1    0.108    0.108
[ constraints ] ; from mdp
 2602  2604     1    0.108    0.108
[ constraints ] ; from mdp
 2602  2605     1    0.108    0.108
[ constraints ] ; from mdp
 2606  2607     1    0.108    0.108
[ constraints ] ; from mdp
 2606  2608     1    0.108    0.108
[ constraints ] ; from mdp
 2606  2609     1    0.108    0.108
[ constraints ] ; from mdp
 2610  2611     1    0.108    0.108
[ constraints ] ; from mdp
 2610  2612     1    0.108    0.108
[ constraints ] ; from mdp
 2610  2613     1    0.108    0.108
[ constraints ] ; from mdp
 2614  2615     1    0.108    0.108
[ constraints ] ; from mdp
 2614  2616     1    0.108    0.108
[ bonds ]
 2614  2617     1    0.153   186188    0.153   186188
[ constraints ] ; from mdp
 2617  2618     1   0.1111   0.1111
[ constraints ] ; from mdp
 2617  2619     1   0.1111   0.1111
[ bonds ]
 2617  2624     1    0.143   284512    0.143   284512
[ bonds ]
 2620  2621     1    0.148   485344    0.148   485344
[ bonds ]
 2620  2622     1    0.148   485344    0.148   485344
[ bonds ]
 2620  2623     1     0.16   225936     0.16   225936
[ bonds ]
 2620  2624     1     0.16   225936     0.16   225936
[ bonds ]
 2623  2625     1    0.143   284512    0.143   284512
[ constraints ] ; from mdp
 2625  2626     1   0.1111   0.1111
[ constraints ] ; from mdp
 2625  2627     1   0.1111   0.1111
[ bonds ]
 2625  2628     1   0.1538   186188   0.1538   186188
[ constraints ] ; from mdp
 2628  2629     1   0.1111   0.1111
[ bonds ]
 2628  2630     1    0.143   284512    0.143   284512
[ bonds ]
 2628  2636     1   0.1538   186188   0.1538   186188
[ bonds ]
 2630  2631     1   0.1334   125520   0.1334   125520
[ bonds ]
 2631  2632     1    0.122   627600    0.122   627600
[ bonds ]
 2631  2633     1   0.1522   167360   0.1522   167360
[ constraints ] ; from mdp
 2633  2634     1   0.1111   0.1111
[ constraints ] ; from mdp
 2633  2635     1   0.1111   0.1111
[ bonds ]
 2633  2645     1    0.153   186188    0.153   186188
[ constraints ] ; from mdp
 2636  2637     1   0.1111   0.1111
[ constraints ] ; from mdp
 2636  2638     1   0.1111   0.1111
[ bonds ]
 2636  2639     1    0.143   284512    0.143   284512
[ bonds ]
 2639  2640     1   0.1334   125520   0.1334   125520
[ bonds ]
 2640  2641     1    0.122   627600    0.122   627600
[ bonds ]
 2640  2642     1   0.1522   167360   0.1522   167360
[ constraints ] ; from mdp
 2642  2643     1   0.1111   0.1111
[ constraints ] ; from mdp
 2642  2644     1   0.1111   0.1111
[ bonds ]
 2642  2688     1    0.153   186188    0.153   186188
[ constraints ] ; from mdp
 2645  2646     1   0.1111   0.1111
[ constraints ] ; from mdp
 2645  2647     1   0.1111   0.1111
[ bonds ]
 2645  2648     1    0.153   186188    0.153   186188
[ constraints ] ; from mdp
 2648  2649     1   0.1111   0.1111
[ constraints ] ; from mdp
 2648  2650     1   0.1111   0.1111
[ bonds ]
 2648  2651     1    0.153   186188    0.153   186188
[ constraints ] ; from mdp
 2651  2652     1   0.1111   0.1111
[ constraints ] ; from mdp
 2651  2653     1   0.1111   0.1111
[ bonds ]
 2651  2654     1    0.153   186188    0.153   186188
[ constraints ] ; from mdp
 2654  2655     1   0.1111   0.1111
[ constraints ] ; from mdp
 2654  2656     1   0.1111   0.1111
[ bonds ]
 2654  2657     1    0.153   186188    0.153   186188
[ constraints ] ; from mdp
 2657  2658     1   0.1111   0.1111
[ constraints ] ; from mdp
 2657  2659     1   0.1111   0.1111
[ bonds ]
 2657  2660     1    0.153   186188    0.153   186188
[ constraints ] ; from mdp
 2660  2661     1   0.1111   0.1111
[ constraints ] ; from mdp
 2660  2662     1   0.1111   0.1111
[ bonds ]
 2660  2663     1    0.153   186188    0.153   186188
[ constraints ] ; from mdp
 2663  2664     1   0.1111   0.1111
[ constraints ] ; from mdp
 2663  2665     1   0.1111   0.1111
[ bonds ]
 2663  2666     1    0.153   186188    0.153   186188
[ constraints ] ; from mdp
 2666  2667     1   0.1111   0.1111
[ constraints ] ; from mdp
 2666  2668     1   0.1111   0.1111
[ bonds ]
 2666  2669     1    0.153   186188    0.153   186188
[ constraints ] ; from mdp
 2669  2670     1   0.1111   0.1111
[ constraints ] ; from mdp
 2669  2671     1   0.1111   0.1111
[ bonds ]
 2669  2672     1    0.153   186188    0.153   186188
[ constraints ] ; from mdp
 2672  2673     1   0.1111   0.1111
[ constraints ] ; from mdp
 2672  2674     1   0.1111   0.1111
[ bonds ]
 2672  2675     1    0.153   186188    0.153   186188
[ constraints ] ; from mdp
 2675  2676     1   0.1111   0.1111
[ constraints ] ; from mdp
 2675  2677     1   0.1111   0.1111
[ bonds ]
 2675  2678     1    0.153   186188    0.153   186188
[ constraints ] ; from mdp
 2678  2679     1   0.1111   0.1111
[ constraints ] ; from mdp
 2678  2680     1   0.1111   0.1111
[ bonds ]
 2678  2681     1    0.153   186188    0.153   186188
[ constraints ] ; from mdp
 2681  2682     1   0.1111   0.1111
[ constraints ] ; from mdp
 2681  2683     1   0.1111   0.1111
[ bonds ]
 2681  2684     1   0.1528   186188   0.1528   186188
[ constraints ] ; from mdp
 2684  2685     1   0.1111   0.1111
[ constraints ] ; from mdp
 2684  2686     1   0.1111   0.1111
[ constraints ] ; from mdp
 2684  2687     1   0.1111   0.1111
[ constraints ] ; from mdp
 2688  2689     1   0.1111   0.1111
[ constraints ] ; from mdp
 2688  2690     1   0.1111   0.1111
[ bonds ]
 2688  2691     1    0.153   186188    0.153   186188
[ constraints ] ; from mdp
 2691  2692     1   0.1111   0.1111
[ constraints ] ; from mdp
 2691  2693     1   0.1111   0.1111
[ bonds ]
 2691  2694     1    0.153   186188    0.153   186188
[ constraints ] ; from mdp
 2694  2695     1   0.1111   0.1111
[ constraints ] ; from mdp
 2694  2696     1   0.1111   0.1111
[ bonds ]
 2694  2697     1    0.153   186188    0.153   186188
[ constraints ] ; from mdp
 2697  2698     1   0.1111   0.1111
[ constraints ] ; from mdp
 2697  2699     1   0.1111   0.1111
[ bonds ]
 2697  2700     1    0.153   186188    0.153   186188
[ constraints ] ; from mdp
 2700  2701     1   0.1111   0.1111
[ constraints ] ; from mdp
 2700  2702     1   0.1111   0.1111
[ bonds ]
 2700  2703     1    0.153   186188    0.153   186188
[ constraints ] ; from mdp
 2703  2704     1   0.1111   0.1111
[ constraints ] ; from mdp
 2703  2705     1   0.1111   0.1111
[ bonds ]
 2703  2706     1    0.153   186188    0.153   186188
[ constraints ] ; from mdp
 2706  2707     1   0.1111   0.1111
[ constraints ] ; from mdp
 2706  2708     1   0.1111   0.1111
[ bonds ]
 2706  2709     1    0.153   186188    0.153   186188
[ constraints ] ; from mdp
 2709  2710     1   0.1111   0.1111
[ constraints ] ; from mdp
 2709  2711     1   0.1111   0.1111
[ bonds ]
 2709  2712     1    0.153   186188    0.153   186188
[ constraints ] ; from mdp
 2712  2713     1   0.1111   0.1111
[ constraints ] ; from mdp
 2712  2714     1   0.1111   0.1111
[ bonds ]
 2712  2715     1    0.153   186188    0.153   186188
[ constraints ] ; from mdp
 2715  2716     1   0.1111   0.1111
[ constraints ] ; from mdp
 2715  2717     1   0.1111   0.1111
[ bonds ]
 2715  2718     1    0.153   186188    0.153   186188
[ constraints ] ; from mdp
 2718  2719     1   0.1111   0.1111
[ constraints ] ; from mdp
 2718  2720     1   0.1111   0.1111
[ bonds ]
 2718  2721     1    0.153   186188    0.153   186188
[ constraints ] ; from mdp
 2721  2722     1   0.1111   0.1111
[ constraints ] ; from mdp
 2721  2723     1   0.1111   0.1111
[ bonds ]
 2721  2724     1    0.153   186188    0.153   186188
[ constraints ] ; from mdp
 2724  2725     1   0.1111   0.1111
[ constraints ] ; from mdp
 2724  2726     1   0.1111   0.1111
[ bonds ]
 2724  2727     1   0.1528   186188   0.1528   186188
[ constraints ] ; from mdp
 2727  2728     1   0.1111   0.1111
[ constraints ] ; from mdp
 2727  2729     1   0.1111   0.1111
[ constraints ] ; from mdp
 2727  2730     1   0.1111   0.1111
[ bonds ]
 2731  2732     1    0.151   179912    0.151   179912
[ bonds ]
 2731  2736     1    0.151   179912    0.151   179912
[ bonds ]
 2731  2740     1    0.151   179912    0.151   179912
[ bonds ]
 2731  2744     1    0.151   179912    0.151   179912
[ constraints ] ; from mdp
 2732  2733     1    0.108    0.108
[ constraints ] ; from mdp
 2732  2734     1    0.108    0.108
[ constraints ] ; from mdp
 2732  2735     1    0.108    0.108
[ constraints ] ; from mdp
 2736  2737     1    0.108    0.108
[ constraints ] ; from mdp
 2736  2738     1    0.108    0.108
[ constraints ] ; from mdp
 2736  2739     1    0.108    0.108
[ constraints ] ; from mdp
 2740  2741     1    0.108    0.108
[ constraints ] ; from mdp
 2740  2742     1    0.108    0.108
[ constraints ] ; from mdp
 2740  2743     1    0.108    0.108
[ constraints ] ; from mdp
 2744  2745     1    0.108    0.108
[ constraints ] ; from mdp
 2744  2746     1    0.108    0.108
[ bonds ]
 2744  2747     1    0.153   186188    0.153   186188
[ constraints ] ; from mdp
 2747  2748     1   0.1111   0.1111
[ constraints ] ; from mdp
 2747  2749     1   0.1111   0.1111
[ bonds ]
 2747  2754     1    0.143   284512    0.143   284512
[ bonds ]
 2750  2751     1    0.148   485344    0.148   485344
[ bonds ]
 2750  2752     1    0.148   485344    0.148   485344
[ bonds ]
 2750  2753     1     0.16   225936     0.16   225936
[ bonds ]
 2750  2754     1     0.16   225936     0.16   225936
[ bonds ]
 2753  2755     1    0.143   284512    0.143   284512
[ constraints ] ; from mdp
 2755  2756     1   0.1111   0.1111
[ constraints ] ; from mdp
 2755  2757     1   0.1111   0.1111
[ bonds ]
 2755  2758     1   0.1538   186188   0.1538   186188
[ constraints ] ; from mdp
 2758  2759     1   0.1111   0.1111
[ bonds ]
 2758  2760     1    0.143   284512    0.143   284512
[ bonds ]
 2758  2766     1   0.1538   186188   0.1538   186188
[ bonds ]
 2760  2761     1   0.1334   125520   0.1334   125520
[ bonds ]
 2761  2762     1    0.122   627600    0.122   627600
[ bonds ]
 2761  2763     1   0.1522   167360   0.1522   167360
[ constraints ] ; from mdp
 2763  2764     1   0.1111   0.1111
[ constraints ] ; from mdp
 2763  2765     1   0.1111   0.1111
[ bonds ]
 2763  2775     1    0.153   186188    0.153   186188
[ constraints ] ; from mdp
 2766  2767     1   0.1111   0.1111
[ constraints ] ; from mdp
 2766  2768     1   0.1111   0.1111
[ bonds ]
 2766  2769     1    0.143   284512    0.143   284512
[ bonds ]
 2769  2770     1   0.1334   125520   0.1334   125520
[ bonds ]
 2770  2771     1    0.122   627600    0.122   627600
[ bonds ]
 2770  2772     1   0.1522   167360   0.1522   167360
[ constraints ] ; from mdp
 2772  2773     1   0.1111   0.1111
[ constraints ] ; from mdp
 2772  2774     1   0.1111   0.1111
[ bonds ]
 2772  2818     1    0.153   186188    0.153   186188
[ constraints ] ; from mdp
 2775  2776     1   0.1111   0.1111
[ constraints ] ; from mdp
 2775  2777     1   0.1111   0.1111
[ bonds ]
 2775  2778     1    0.153   186188    0.153   186188
[ constraints ] ; from mdp
 2778  2779     1   0.1111   0.1111
[ constraints ] ; from mdp
 2778  2780     1   0.1111   0.1111
[ bonds ]
 2778  2781     1    0.153   186188    0.153   186188
[ constraints ] ; from mdp
 2781  2782     1   0.1111   0.1111
[ constraints ] ; from mdp
 2781  2783     1   0.1111   0.1111
[ bonds ]
 2781  2784     1    0.153   186188    0.153   186188
[ constraints ] ; from mdp
 2784  2785     1   0.1111   0.1111
[ constraints ] ; from mdp
 2784  2786     1   0.1111   0.1111
[ bonds ]
 2784  2787     1    0.153   186188    0.153   186188
[ constraints ] ; from mdp
 2787  2788     1   0.1111   0.1111
[ constraints ] ; from mdp
 2787  2789     1   0.1111   0.1111
[ bonds ]
 2787  2790     1    0.153   186188    0.153   186188
[ constraints ] ; from mdp
 2790  2791     1   0.1111   0.1111
[ constraints ] ; from mdp
 2790  2792     1   0.1111   0.1111
[ bonds ]
 2790  2793     1    0.153   186188    0.153   186188
[ constraints ] ; from mdp
 2793  2794     1   0.1111   0.1111
[ constraints ] ; from mdp
 2793  2795     1   0.1111   0.1111
[ bonds ]
 2793  2796     1    0.153   186188    0.153   186188
[ constraints ] ; from mdp
 2796  2797     1   0.1111   0.1111
[ constraints ] ; from mdp
 2796  2798     1   0.1111   0.1111
[ bonds ]
 2796  2799     1    0.153   186188    0.153   186188
[ constraints ] ; from mdp
 2799  2800     1   0.1111   0.1111
[ constraints ] ; from mdp
 2799  2801     1   0.1111   0.1111
[ bonds ]
 2799  2802     1    0.153   186188    0.153   186188
[ constraints ] ; from mdp
 2802  2803     1   0.1111   0.1111
[ constraints ] ; from mdp
 2802  2804     1   0.1111   0.1111
[ bonds ]
 2802  2805     1    0.153   186188    0.153   186188
[ constraints ] ; from mdp
 2805  2806     1   0.1111   0.1111
[ constraints ] ; from mdp
 2805  2807     1   0.1111   0.1111
[ bonds ]
 2805  2808     1    0.153   186188    0.153   186188
[ constraints ] ; from mdp
 2808  2809     1   0.1111   0.1111
[ constraints ] ; from mdp
 2808  2810     1   0.1111   0.1111
[ bonds ]
 2808  2811     1    0.153   186188    0.153   186188
[ constraints ] ; from mdp
 2811  2812     1   0.1111   0.1111
[ constraints ] ; from mdp
 2811  2813     1   0.1111   0.1111
[ bonds ]
 2811  2814     1   0.1528   186188   0.1528   186188
[ constraints ] ; from mdp
 2814  2815     1   0.1111   0.1111
[ constraints ] ; from mdp
 2814  2816     1   0.1111   0.1111
[ constraints ] ; from mdp
 2814  2817     1   0.1111   0.1111
[ constraints ] ; from mdp
 2818  2819     1   0.1111   0.1111
[ constraints ] ; from mdp
 2818  2820     1   0.1111   0.1111
[ bonds ]
 2818  2821     1    0.153   186188    0.153   186188
[ constraints ] ; from mdp
 2821  2822     1   0.1111   0.1111
[ constraints ] ; from mdp
 2821  2823     1   0.1111   0.1111
[ bonds ]
 2821  2824     1    0.153   186188    0.153   186188
[ constraints ] ; from mdp
 2824  2825     1   0.1111   0.1111
[ constraints ] ; from mdp
 2824  2826     1   0.1111   0.1111
[ bonds ]
 2824  2827     1    0.153   186188    0.153   186188
[ constraints ] ; from mdp
 2827  2828     1   0.1111   0.1111
[ constraints ] ; from mdp
 2827  2829     1   0.1111   0.1111
[ bonds ]
 2827  2830     1    0.153   186188    0.153   186188
[ constraints ] ; from mdp
 2830  2831     1   0.1111   0.1111
[ constraints ] ; from mdp
 2830  2832     1   0.1111   0.1111
[ bonds ]
 2830  2833     1    0.153   186188    0.153   186188
[ constraints ] ; from mdp
 2833  2834     1   0.1111   0.1111
[ constraints ] ; from mdp
 2833  2835     1   0.1111   0.1111
[ bonds ]
 2833  2836     1    0.153   186188    0.153   186188
[ constraints ] ; from mdp
 2836  2837     1   0.1111   0.1111
[ constraints ] ; from mdp
 2836  2838     1   0.1111   0.1111
[ bonds ]
 2836  2839     1    0.153   186188    0.153   186188
[ constraints ] ; from mdp
 2839  2840     1   0.1111   0.1111
[ constraints ] ; from mdp
 2839  2841     1   0.1111   0.1111
[ bonds ]
 2839  2842     1    0.153   186188    0.153   186188
[ constraints ] ; from mdp
 2842  2843     1   0.1111   0.1111
[ constraints ] ; from mdp
 2842  2844     1   0.1111   0.1111
[ bonds ]
 2842  2845     1    0.153   186188    0.153   186188
[ constraints ] ; from mdp
 2845  2846     1   0.1111   0.1111
[ constraints ] ; from mdp
 2845  2847     1   0.1111   0.1111
[ bonds ]
 2845  2848     1    0.153   186188    0.153   186188
[ constraints ] ; from mdp
 2848  2849     1   0.1111   0.1111
[ constraints ] ; from mdp
 2848  2850     1   0.1111   0.1111
[ bonds ]
 2848  2851     1    0.153   186188    0.153   186188
[ constraints ] ; from mdp
 2851  2852     1   0.1111   0.1111
[ constraints ] ; from mdp
 2851  2853     1   0.1111   0.1111
[ bonds ]
 2851  2854     1    0.153   186188    0.153   186188
[ constraints ] ; from mdp
 2854  2855     1   0.1111   0.1111
[ constraints ] ; from mdp
 2854  2856     1   0.1111   0.1111
[ bonds ]
 2854  2857     1   0.1528   186188   0.1528   186188
[ constraints ] ; from mdp
 2857  2858     1   0.1111   0.1111
[ constraints ] ; from mdp
 2857  2859     1   0.1111   0.1111
[ constraints ] ; from mdp
 2857  2860     1   0.1111   0.1111
[ bonds ]
 2861  2862     1    0.151   179912    0.151   179912
[ bonds ]
 2861  2866     1    0.151   179912    0.151   179912
[ bonds ]
 2861  2870     1    0.151   179912    0.151   179912
[ bonds ]
 2861  2874     1    0.151   179912    0.151   179912
[ constraints ] ; from mdp
 2862  2863     1    0.108    0.108
[ constraints ] ; from mdp
 2862  2864     1    0.108    0.108
[ constraints ] ; from mdp
 2862  2865     1    0.108    0.108
[ constraints ] ; from mdp
 2866  2867     1    0.108    0.108
[ constraints ] ; from mdp
 2866  2868     1    0.108    0.108
[ constraints ] ; from mdp
 2866  2869     1    0.108    0.108
[ constraints ] ; from mdp
 2870  2871     1    0.108    0.108
[ constraints ] ; from mdp
 2870  2872     1    0.108    0.108
[ constraints ] ; from mdp
 2870  2873     1    0.108    0.108
[ constraints ] ; from mdp
 2874  2875     1    0.108    0.108
[ constraints ] ; from mdp
 2874  2876     1    0.108    0.108
[ bonds ]
 2874  2877     1    0.153   186188    0.153   186188
[ constraints ] ; from mdp
 2877  2878     1   0.1111   0.1111
[ constraints ] ; from mdp
 2877  2879     1   0.1111   0.1111
[ bonds ]
 2877  2884     1    0.143   284512    0.143   284512
[ bonds ]
 2880  2881     1    0.148   485344    0.148   485344
[ bonds ]
 2880  2882     1    0.148   485344    0.148   485344
[ bonds ]
 2880  2883     1     0.16   225936     0.16   225936
[ bonds ]
 2880  2884     1     0.16   225936     0.16   225936
[ bonds ]
 2883  2885     1    0.143   284512    0.143   284512
[ constraints ] ; from mdp
 2885  2886     1   0.1111   0.1111
[ constraints ] ; from mdp
 2885  2887     1   0.1111   0.1111
[ bonds ]
 2885  2888     1   0.1538   186188   0.1538   186188
[ constraints ] ; from mdp
 2888  2889     1   0.1111   0.1111
[ bonds ]
 2888  2890     1    0.143   284512    0.143   284512
[ bonds ]
 2888  2896     1   0.1538   186188   0.1538   186188
[ bonds ]
 2890  2891     1   0.1334   125520   0.1334   125520
[ bonds ]
 2891  2892     1    0.122   627600    0.122   627600
[ bonds ]
 2891  2893     1   0.1522   167360   0.1522   167360
[ constraints ] ; from mdp
 2893  2894     1   0.1111   0.1111
[ constraints ] ; from mdp
 2893  2895     1   0.1111   0.1111
[ bonds ]
 2893  2905     1    0.153   186188    0.153   186188
[ constraints ] ; from mdp
 2896  2897     1   0.1111   0.1111
[ constraints ] ; from mdp
 2896  2898     1   0.1111   0.1111
[ bonds ]
 2896  2899     1    0.143   284512    0.143   284512
[ bonds ]
 2899  2900     1   0.1334   125520   0.1334   125520
[ bonds ]
 2900  2901     1    0.122   627600    0.122   627600
[ bonds ]
 2900  2902     1   0.1522   167360   0.1522   167360
[ constraints ] ; from mdp
 2902  2903     1   0.1111   0.1111
[ constraints ] ; from mdp
 2902  2904     1   0.1111   0.1111
[ bonds ]
 2902  2948     1    0.153   186188    0.153   186188
[ constraints ] ; from mdp
 2905  2906     1   0.1111   0.1111
[ constraints ] ; from mdp
 2905  2907     1   0.1111   0.1111
[ bonds ]
 2905  2908     1    0.153   186188    0.153   186188
[ constraints ] ; from mdp
 2908  2909     1   0.1111   0.1111
[ constraints ] ; from mdp
 2908  2910     1   0.1111   0.1111
[ bonds ]
 2908  2911     1    0.153   186188    0.153   186188
[ constraints ] ; from mdp
 2911  2912     1   0.1111   0.1111
[ constraints ] ; from mdp
 2911  2913     1   0.1111   0.1111
[ bonds ]
 2911  2914     1    0.153   186188    0.153   186188
[ constraints ] ; from mdp
 2914  2915     1   0.1111   0.1111
[ constraints ] ; from mdp
 2914  2916     1   0.1111   0.1111
[ bonds ]
 2914  2917     1    0.153   186188    0.153   186188
[ constraints ] ; from mdp
 2917  2918     1   0.1111   0.1111
[ constraints ] ; from mdp
 2917  2919     1   0.1111   0.1111
[ bonds ]
 2917  2920     1    0.153   186188    0.153   186188
[ constraints ] ; from mdp
 2920  2921     1   0.1111   0.1111
[ constraints ] ; from mdp
 2920  2922     1   0.1111   0.1111
[ bonds ]
 2920  2923     1    0.153   186188    0.153   186188
[ constraints ] ; from mdp
 2923  2924     1   0.1111   0.1111
[ constraints ] ; from mdp
 2923  2925     1   0.1111   0.1111
[ bonds ]
 2923  2926     1    0.153   186188    0.153   186188
[ constraints ] ; from mdp
 2926  2927     1   0.1111   0.1111
[ constraints ] ; from mdp
 2926  2928     1   0.1111   0.1111
[ bonds ]
 2926  2929     1    0.153   186188    0.153   186188
[ constraints ] ; from mdp
 2929  2930     1   0.1111   0.1111
[ constraints ] ; from mdp
 2929  2931     1   0.1111   0.1111
[ bonds ]
 2929  2932     1    0.153   186188    0.153   186188
[ constraints ] ; from mdp
 2932  2933     1   0.1111   0.1111
[ constraints ] ; from mdp
 2932  2934     1   0.1111   0.1111
[ bonds ]
 2932  2935     1    0.153   186188    0.153   186188
[ constraints ] ; from mdp
 2935  2936     1   0.1111   0.1111
[ constraints ] ; from mdp
 2935  2937     1   0.1111   0.1111
[ bonds ]
 2935  2938     1    0.153   186188    0.153   186188
[ constraints ] ; from mdp
 2938  2939     1   0.1111   0.1111
[ constraints ] ; from mdp
 2938  2940     1   0.1111   0.1111
[ bonds ]
 2938  2941     1    0.153   186188    0.153   186188
[ constraints ] ; from mdp
 2941  2942     1   0.1111   0.1111
[ constraints ] ; from mdp
 2941  2943     1   0.1111   0.1111
[ bonds ]
 2941  2944     1   0.1528   186188   0.1528   186188
[ constraints ] ; from mdp
 2944  2945     1   0.1111   0.1111
[ constraints ] ; from mdp
 2944  2946     1   0.1111   0.1111
[ constraints ] ; from mdp
 2944  2947     1   0.1111   0.1111
[ constraints ] ; from mdp
 2948  2949     1   0.1111   0.1111
[ constraints ] ; from mdp
 2948  2950     1   0.1111   0.1111
[ bonds ]
 2948  2951     1    0.153   186188    0.153   186188
[ constraints ] ; from mdp
 2951  2952     1   0.1111   0.1111
[ constraints ] ; from mdp
 2951  2953     1   0.1111   0.1111
[ bonds ]
 2951  2954     1    0.153   186188    0.153   186188
[ constraints ] ; from mdp
 2954  2955     1   0.1111   0.1111
[ constraints ] ; from mdp
 2954  2956     1   0.1111   0.1111
[ bonds ]
 2954  2957     1    0.153   186188    0.153   186188
[ constraints ] ; from mdp
 2957  2958     1   0.1111   0.1111
[ constraints ] ; from mdp
 2957  2959     1   0.1111   0.1111
[ bonds ]
 2957  2960     1    0.153   186188    0.153   186188
[ constraints ] ; from mdp
 2960  2961     1   0.1111   0.1111
[ constraints ] ; from mdp
 2960  2962     1   0.1111   0.1111
[ bonds ]
 2960  2963     1    0.153   186188    0.153   186188
[ constraints ] ; from mdp
 2963  2964     1   0.1111   0.1111
[ constraints ] ; from mdp
 2963  2965     1   0.1111   0.1111
[ bonds ]
 2963  2966     1    0.153   186188    0.153   186188
[ constraints ] ; from mdp
 2966  2967     1   0.1111   0.1111
[ constraints ] ; from mdp
 2966  2968     1   0.1111   0.1111
[ bonds ]
 2966  2969     1    0.153   186188    0.153   186188
[ constraints ] ; from mdp
 2969  2970     1   0.1111   0.1111
[ constraints ] ; from mdp
 2969  2971     1   0.1111   0.1111
[ bonds ]
 2969  2972     1    0.153   186188    0.153   186188
[ constraints ] ; from mdp
 2972  2973     1   0.1111   0.1111
[ constraints ] ; from mdp
 2972  2974     1   0.1111   0.1111
[ bonds ]
 2972  2975     1    0.153   186188    0.153   186188
[ constraints ] ; from mdp
 2975  2976     1   0.1111   0.1111
[ constraints ] ; from mdp
 2975  2977     1   0.1111   0.1111
[ bonds ]
 2975  2978     1    0.153   186188    0.153   186188
[ constraints ] ; from mdp
 2978  2979     1   0.1111   0.1111
[ constraints ] ; from mdp
 2978  2980     1   0.1111   0.1111
[ bonds ]
 2978  2981     1    0.153   186188    0.153   186188
[ constraints ] ; from mdp
 2981  2982     1   0.1111   0.1111
[ constraints ] ; from mdp
 2981  2983     1   0.1111   0.1111
[ bonds ]
 2981  2984     1    0.153   186188    0.153   186188
[ constraints ] ; from mdp
 2984  2985     1   0.1111   0.1111
[ constraints ] ; from mdp
 2984  2986     1   0.1111   0.1111
[ bonds ]
 2984  2987     1   0.1528   186188   0.1528   186188
[ constraints ] ; from mdp
 2987  2988     1   0.1111   0.1111
[ constraints ] ; from mdp
 2987  2989     1   0.1111   0.1111
[ constraints ] ; from mdp
 2987  2990     1   0.1111   0.1111
[ bonds ]
 2991  2992     1    0.151   179912    0.151   179912
[ bonds ]
 2991  2996     1    0.151   179912    0.151   179912
[ bonds ]
 2991  3000     1    0.151   179912    0.151   179912
[ bonds ]
 2991  3004     1    0.151   179912    0.151   179912
[ constraints ] ; from mdp
 2992  2993     1    0.108    0.108
[ constraints ] ; from mdp
 2992  2994     1    0.108    0.108
[ constraints ] ; from mdp
 2992  2995     1    0.108    0.108
[ constraints ] ; from mdp
 2996  2997     1    0.108    0.108
[ constraints ] ; from mdp
 2996  2998     1    0.108    0.108
[ constraints ] ; from mdp
 2996  2999     1    0.108    0.108
[ constraints ] ; from mdp
 3000  3001     1    0.108    0.108
[ constraints ] ; from mdp
 3000  3002     1    0.108    0.108
[ constraints ] ; from mdp
 3000  3003     1    0.108    0.108
[ constraints ] ; from mdp
 3004  3005     1    0.108    0.108
[ constraints ] ; from mdp
 3004  3006     1    0.108    0.108
[ bonds ]
 3004  3007     1    0.153   186188    0.153   186188
[ constraints ] ; from mdp
 3007  3008     1   0.1111   0.1111
[ constraints ] ; from mdp
 3007  3009     1   0.1111   0.1111
[ bonds ]
 3007  3014     1    0.143   284512    0.143   284512
[ bonds ]
 3010  3011     1    0.148   485344    0.148   485344
[ bonds ]
 3010  3012     1    0.148   485344    0.148   485344
[ bonds ]
 3010  3013     1     0.16   225936     0.16   225936
[ bonds ]
 3010  3014     1     0.16   225936     0.16   225936
[ bonds ]
 3013  3015     1    0.143   284512    0.143   284512
[ constraints ] ; from mdp
 3015  3016     1   0.1111   0.1111
[ constraints ] ; from mdp
 3015  3017     1   0.1111   0.1111
[ bonds ]
 3015  3018     1   0.1538   186188   0.1538   186188
[ constraints ] ; from mdp
 3018  3019     1   0.1111   0.1111
[ bonds ]
 3018  3020     1    0.143   284512    0.143   284512
[ bonds ]
 3018  3026     1   0.1538   186188   0.1538   186188
[ bonds ]
 3020  3021     1   0.1334   125520   0.1334   125520
[ bonds ]
 3021  3022     1    0.122   627600    0.122   627600
[ bonds ]
 3021  3023     1   0.1522   167360   0.1522   167360
[ constraints ] ; from mdp
 3023  3024     1   0.1111   0.1111
[ constraints ] ; from mdp
 3023  3025     1   0.1111   0.1111
[ bonds ]
 3023  3035     1    0.153   186188    0.153   186188
[ constraints ] ; from mdp
 3026  3027     1   0.1111   0.1111
[ constraints ] ; from mdp
 3026  3028     1   0.1111   0.1111
[ bonds ]
 3026  3029     1    0.143   284512    0.143   284512
[ bonds ]
 3029  3030     1   0.1334   125520   0.1334   125520
[ bonds ]
 3030  3031     1    0.122   627600    0.122   627600
[ bonds ]
 3030  3032     1   0.1522   167360   0.1522   167360
[ constraints ] ; from mdp
 3032  3033     1   0.1111   0.1111
[ constraints ] ; from mdp
 3032  3034     1   0.1111   0.1111
[ bonds ]
 3032  3078     1    0.153   186188    0.153   186188
[ constraints ] ; from mdp
 3035  3036     1   0.1111   0.1111
[ constraints ] ; from mdp
 3035  3037     1   0.1111   0.1111
[ bonds ]
 3035  3038     1    0.153   186188    0.153   186188
[ constraints ] ; from mdp
 3038  3039     1   0.1111   0.1111
[ constraints ] ; from mdp
 3038  3040     1   0.1111   0.1111
[ bonds ]
 3038  3041     1    0.153   186188    0.153   186188
[ constraints ] ; from mdp
 3041  3042     1   0.1111   0.1111
[ constraints ] ; from mdp
 3041  3043     1   0.1111   0.1111
[ bonds ]
 3041  3044     1    0.153   186188    0.153   186188
[ constraints ] ; from mdp
 3044  3045     1   0.1111   0.1111
[ constraints ] ; from mdp
 3044  3046     1   0.1111   0.1111
[ bonds ]
 3044  3047     1    0.153   186188    0.153   186188
[ constraints ] ; from mdp
 3047  3048     1   0.1111   0.1111
[ constraints ] ; from mdp
 3047  3049     1   0.1111   0.1111
[ bonds ]
 3047  3050     1    0.153   186188    0.153   186188
[ constraints ] ; from mdp
 3050  3051     1   0.1111   0.1111
[ constraints ] ; from mdp
 3050  3052     1   0.1111   0.1111
[ bonds ]
 3050  3053     1    0.153   186188    0.153   186188
[ constraints ] ; from mdp
 3053  3054     1   0.1111   0.1111
[ constraints ] ; from mdp
 3053  3055     1   0.1111   0.1111
[ bonds ]
 3053  3056     1    0.153   186188    0.153   186188
[ constraints ] ; from mdp
 3056  3057     1   0.1111   0.1111
[ constraints ] ; from mdp
 3056  3058     1   0.1111   0.1111
[ bonds ]
 3056  3059     1    0.153   186188    0.153   186188
[ constraints ] ; from mdp
 3059  3060     1   0.1111   0.1111
[ constraints ] ; from mdp
 3059  3061     1   0.1111   0.1111
[ bonds ]
 3059  3062     1    0.153   186188    0.153   186188
[ constraints ] ; from mdp
 3062  3063     1   0.1111   0.1111
[ constraints ] ; from mdp
 3062  3064     1   0.1111   0.1111
[ bonds ]
 3062  3065     1    0.153   186188    0.153   186188
[ constraints ] ; from mdp
 3065  3066     1   0.1111   0.1111
[ constraints ] ; from mdp
 3065  3067     1   0.1111   0.1111
[ bonds ]
 3065  3068     1    0.153   186188    0.153   186188
[ constraints ] ; from mdp
 3068  3069     1   0.1111   0.1111
[ constraints ] ; from mdp
 3068  3070     1   0.1111   0.1111
[ bonds ]
 3068  3071     1    0.153   186188    0.153   186188
[ constraints ] ; from mdp
 3071  3072     1   0.1111   0.1111
[ constraints ] ; from mdp
 3071  3073     1   0.1111   0.1111
[ bonds ]
 3071  3074     1   0.1528   186188   0.1528   186188
[ constraints ] ; from mdp
 3074  3075     1   0.1111   0.1111
[ constraints ] ; from mdp
 3074  3076     1   0.1111   0.1111
[ constraints ] ; from mdp
 3074  3077     1   0.1111   0.1111
[ constraints ] ; from mdp
 3078  3079     1   0.1111   0.1111
[ constraints ] ; from mdp
 3078  3080     1   0.1111   0.1111
[ bonds ]
 3078  3081     1    0.153   186188    0.153   186188
[ constraints ] ; from mdp
 3081  3082     1   0.1111   0.1111
[ constraints ] ; from mdp
 3081  3083     1   0.1111   0.1111
[ bonds ]
 3081  3084     1    0.153   186188    0.153   186188
[ constraints ] ; from mdp
 3084  3085     1   0.1111   0.1111
[ constraints ] ; from mdp
 3084  3086     1   0.1111   0.1111
[ bonds ]
 3084  3087     1    0.153   186188    0.153   186188
[ constraints ] ; from mdp
 3087  3088     1   0.1111   0.1111
[ constraints ] ; from mdp
 3087  3089     1   0.1111   0.1111
[ bonds ]
 3087  3090     1    0.153   186188    0.153   186188
[ constraints ] ; from mdp
 3090  3091     1   0.1111   0.1111
[ constraints ] ; from mdp
 3090  3092     1   0.1111   0.1111
[ bonds ]
 3090  3093     1    0.153   186188    0.153   186188
[ constraints ] ; from mdp
 3093  3094     1   0.1111   0.1111
[ constraints ] ; from mdp
 3093  3095     1   0.1111   0.1111
[ bonds ]
 3093  3096     1    0.153   186188    0.153   186188
[ constraints ] ; from mdp
 3096  3097     1   0.1111   0.1111
[ constraints ] ; from mdp
 3096  3098     1   0.1111   0.1111
[ bonds ]
 3096  3099     1    0.153   186188    0.153   186188
[ constraints ] ; from mdp
 3099  3100     1   0.1111   0.1111
[ constraints ] ; from mdp
 3099  3101     1   0.1111   0.1111
[ bonds ]
 3099  3102     1    0.153   186188    0.153   186188
[ constraints ] ; from mdp
 3102  3103     1   0.1111   0.1111
[ constraints ] ; from mdp
 3102  3104     1   0.1111   0.1111
[ bonds ]
 3102  3105     1    0.153   186188    0.153   186188
[ constraints ] ; from mdp
 3105  3106     1   0.1111   0.1111
[ constraints ] ; from mdp
 3105  3107     1   0.1111   0.1111
[ bonds ]
 3105  3108     1    0.153   186188    0.153   186188
[ constraints ] ; from mdp
 3108  3109     1   0.1111   0.1111
[ constraints ] ; from mdp
 3108  3110     1   0.1111   0.1111
[ bonds ]
 3108  3111     1    0.153   186188    0.153   186188
[ constraints ] ; from mdp
 3111  3112     1   0.1111   0.1111
[ constraints ] ; from mdp
 3111  3113     1   0.1111   0.1111
[ bonds ]
 3111  3114     1    0.153   186188    0.153   186188
[ constraints ] ; from mdp
 3114  3115     1   0.1111   0.1111
[ constraints ] ; from mdp
 3114  3116     1   0.1111   0.1111
[ bonds ]
 3114  3117     1   0.1528   186188   0.1528   186188
[ constraints ] ; from mdp
 3117  3118     1   0.1111   0.1111
[ constraints ] ; from mdp
 3117  3119     1   0.1111   0.1111
[ constraints ] ; from mdp
 3117  3120     1   0.1111   0.1111
[ bonds ]
 3121  3122     1    0.151   179912    0.151   179912
[ bonds ]
 3121  3126     1    0.151   179912    0.151   179912
[ bonds ]
 3121  3130     1    0.151   179912    0.151   179912
[ bonds ]
 3121  3134     1    0.151   179912    0.151   179912
[ constraints ] ; from mdp
 3122  3123     1    0.108    0.108
[ constraints ] ; from mdp
 3122  3124     1    0.108    0.108
[ constraints ] ; from mdp
 3122  3125     1    0.108    0.108
[ constraints ] ; from mdp
 3126  3127     1    0.108    0.108
[ constraints ] ; from mdp
 3126  3128     1    0.108    0.108
[ constraints ] ; from mdp
 3126  3129     1    0.108    0.108
[ constraints ] ; from mdp
 3130  3131     1    0.108    0.108
[ constraints ] ; from mdp
 3130  3132     1    0.108    0.108
[ constraints ] ; from mdp
 3130  3133     1    0.108    0.108
[ constraints ] ; from mdp
 3134  3135     1    0.108    0.108
[ constraints ] ; from mdp
 3134  3136     1    0.108    0.108
[ bonds ]
 3134  3137     1    0.153   186188    0.153   186188
[ constraints ] ; from mdp
 3137  3138     1   0.1111   0.1111
[ constraints ] ; from mdp
 3137  3139     1   0.1111   0.1111
[ bonds ]
 3137  3144     1    0.143   284512    0.143   284512
[ bonds ]
 3140  3141     1    0.148   485344    0.148   485344
[ bonds ]
 3140  3142     1    0.148   485344    0.148   485344
[ bonds ]
 3140  3143     1     0.16   225936     0.16   225936
[ bonds ]
 3140  3144     1     0.16   225936     0.16   225936
[ bonds ]
 3143  3145     1    0.143   284512    0.143   284512
[ constraints ] ; from mdp
 3145  3146     1   0.1111   0.1111
[ constraints ] ; from mdp
 3145  3147     1   0.1111   0.1111
[ bonds ]
 3145  3148     1   0.1538   186188   0.1538   186188
[ constraints ] ; from mdp
 3148  3149     1   0.1111   0.1111
[ bonds ]
 3148  3150     1    0.143   284512    0.143   284512
[ bonds ]
 3148  3156     1   0.1538   186188   0.1538   186188
[ bonds ]
 3150  3151     1   0.1334   125520   0.1334   125520
[ bonds ]
 3151  3152     1    0.122   627600    0.122   627600
[ bonds ]
 3151  3153     1   0.1522   167360   0.1522   167360
[ constraints ] ; from mdp
 3153  3154     1   0.1111   0.1111
[ constraints ] ; from mdp
 3153  3155     1   0.1111   0.1111
[ bonds ]
 3153  3165     1    0.153   186188    0.153   186188
[ constraints ] ; from mdp
 3156  3157     1   0.1111   0.1111
[ constraints ] ; from mdp
 3156  3158     1   0.1111   0.1111
[ bonds ]
 3156  3159     1    0.143   284512    0.143   284512
[ bonds ]
 3159  3160     1   0.1334   125520   0.1334   125520
[ bonds ]
 3160  3161     1    0.122   627600    0.122   627600
[ bonds ]
 3160  3162     1   0.1522   167360   0.1522   167360
[ constraints ] ; from mdp
 3162  3163     1   0.1111   0.1111
[ constraints ] ; from mdp
 3162  3164     1   0.1111   0.1111
[ bonds ]
 3162  3208     1    0.153   186188    0.153   186188
[ constraints ] ; from mdp
 3165  3166     1   0.1111   0.1111
[ constraints ] ; from mdp
 3165  3167     1   0.1111   0.1111
[ bonds ]
 3165  3168     1    0.153   186188    0.153   186188
[ constraints ] ; from mdp
 3168  3169     1   0.1111   0.1111
[ constraints ] ; from mdp
 3168  3170     1   0.1111   0.1111
[ bonds ]
 3168  3171     1    0.153   186188    0.153   186188
[ constraints ] ; from mdp
 3171  3172     1   0.1111   0.1111
[ constraints ] ; from mdp
 3171  3173     1   0.1111   0.1111
[ bonds ]
 3171  3174     1    0.153   186188    0.153   186188
[ constraints ] ; from mdp
 3174  3175     1   0.1111   0.1111
[ constraints ] ; from mdp
 3174  3176     1   0.1111   0.1111
[ bonds ]
 3174  3177     1    0.153   186188    0.153   186188
[ constraints ] ; from mdp
 3177  3178     1   0.1111   0.1111
[ constraints ] ; from mdp
 3177  3179     1   0.1111   0.1111
[ bonds ]
 3177  3180     1    0.153   186188    0.153   186188
[ constraints ] ; from mdp
 3180  3181     1   0.1111   0.1111
[ constraints ] ; from mdp
 3180  3182     1   0.1111   0.1111
[ bonds ]
 3180  3183     1    0.153   186188    0.153   186188
[ constraints ] ; from mdp
 3183  3184     1   0.1111   0.1111
[ constraints ] ; from mdp
 3183  3185     1   0.1111   0.1111
[ bonds ]
 3183  3186     1    0.153   186188    0.153   186188
[ constraints ] ; from mdp
 3186  3187     1   0.1111   0.1111
[ constraints ] ; from mdp
 3186  3188     1   0.1111   0.1111
[ bonds ]
 3186  3189     1    0.153   186188    0.153   186188
[ constraints ] ; from mdp
 3189  3190     1   0.1111   0.1111
[ constraints ] ; from mdp
 3189  3191     1   0.1111   0.1111
[ bonds ]
 3189  3192     1    0.153   186188    0.153   186188
[ constraints ] ; from mdp
 3192  3193     1   0.1111   0.1111
[ constraints ] ; from mdp
 3192  3194     1   0.1111   0.1111
[ bonds ]
 3192  3195     1    0.153   186188    0.153   186188
[ constraints ] ; from mdp
 3195  3196     1   0.1111   0.1111
[ constraints ] ; from mdp
 3195  3197     1   0.1111   0.1111
[ bonds ]
 3195  3198     1    0.153   186188    0.153   186188
[ constraints ] ; from mdp
 3198  3199     1   0.1111   0.1111
[ constraints ] ; from mdp
 3198  3200     1   0.1111   0.1111
[ bonds ]
 3198  3201     1    0.153   186188    0.153   186188
[ constraints ] ; from mdp
 3201  3202     1   0.1111   0.1111
[ constraints ] ; from mdp
 3201  3203     1   0.1111   0.1111
[ bonds ]
 3201  3204     1   0.1528   186188   0.1528   186188
[ constraints ] ; from mdp
 3204  3205     1   0.1111   0.1111
[ constraints ] ; from mdp
 3204  3206     1   0.1111   0.1111
[ constraints ] ; from mdp
 3204  3207     1   0.1111   0.1111
[ constraints ] ; from mdp
 3208  3209     1   0.1111   0.1111
[ constraints ] ; from mdp
 3208  3210     1   0.1111   0.1111
[ bonds ]
 3208  3211     1    0.153   186188    0.153   186188
[ constraints ] ; from mdp
 3211  3212     1   0.1111   0.1111
[ constraints ] ; from mdp
 3211  3213     1   0.1111   0.1111
[ bonds ]
 3211  3214     1    0.153   186188    0.153   186188
[ constraints ] ; from mdp
 3214  3215     1   0.1111   0.1111
[ constraints ] ; from mdp
 3214  3216     1   0.1111   0.1111
[ bonds ]
 3214  3217     1    0.153   186188    0.153   186188
[ constraints ] ; from mdp
 3217  3218     1   0.1111   0.1111
[ constraints ] ; from mdp
 3217  3219     1   0.1111   0.1111
[ bonds ]
 3217  3220     1    0.153   186188    0.153   186188
[ constraints ] ; from mdp
 3220  3221     1   0.1111   0.1111
[ constraints ] ; from mdp
 3220  3222     1   0.1111   0.1111
[ bonds ]
 3220  3223     1    0.153   186188    0.153   186188
[ constraints ] ; from mdp
 3223  3224     1   0.1111   0.1111
[ constraints ] ; from mdp
 3223  3225     1   0.1111   0.1111
[ bonds ]
 3223  3226     1    0.153   186188    0.153   186188
[ constraints ] ; from mdp
 3226  3227     1   0.1111   0.1111
[ constraints ] ; from mdp
 3226  3228     1   0.1111   0.1111
[ bonds ]
 3226  3229     1    0.153   186188    0.153   186188
[ constraints ] ; from mdp
 3229  3230     1   0.1111   0.1111
[ constraints ] ; from mdp
 3229  3231     1   0.1111   0.1111
[ bonds ]
 3229  3232     1    0.153   186188    0.153   186188
[ constraints ] ; from mdp
 3232  3233     1   0.1111   0.1111
[ constraints ] ; from mdp
 3232  3234     1   0.1111   0.1111
[ bonds ]
 3232  3235     1    0.153   186188    0.153   186188
[ constraints ] ; from mdp
 3235  3236     1   0.1111   0.1111
[ constraints ] ; from mdp
 3235  3237     1   0.1111   0.1111
[ bonds ]
 3235  3238     1    0.153   186188    0.153   186188
[ constraints ] ; from mdp
 3238  3239     1   0.1111   0.1111
[ constraints ] ; from mdp
 3238  3240     1   0.1111   0.1111
[ bonds ]
 3238  3241     1    0.153   186188    0.153   186188
[ constraints ] ; from mdp
 3241  3242     1   0.1111   0.1111
[ constraints ] ; from mdp
 3241  3243     1   0.1111   0.1111
[ bonds ]
 3241  3244     1    0.153   186188    0.153   186188
[ constraints ] ; from mdp
 3244  3245     1   0.1111   0.1111
[ constraints ] ; from mdp
 3244  3246     1   0.1111   0.1111
[ bonds ]
 3244  3247     1   0.1528   186188   0.1528   186188
[ constraints ] ; from mdp
 3247  3248     1   0.1111   0.1111
[ constraints ] ; from mdp
 3247  3249     1   0.1111   0.1111
[ constraints ] ; from mdp
 3247  3250     1   0.1111   0.1111
[ bonds ]
 3251  3252     1    0.151   179912    0.151   179912
[ bonds ]
 3251  3256     1    0.151   179912    0.151   179912
[ bonds ]
 3251  3260     1    0.151   179912    0.151   179912
[ bonds ]
 3251  3264     1    0.151   179912    0.151   179912
[ constraints ] ; from mdp
 3252  3253     1    0.108    0.108
[ constraints ] ; from mdp
 3252  3254     1    0.108    0.108
[ constraints ] ; from mdp
 3252  3255     1    0.108    0.108
[ constraints ] ; from mdp
 3256  3257     1    0.108    0.108
[ constraints ] ; from mdp
 3256  3258     1    0.108    0.108
[ constraints ] ; from mdp
 3256  3259     1    0.108    0.108
[ constraints ] ; from mdp
 3260  3261     1    0.108    0.108
[ constraints ] ; from mdp
 3260  3262     1    0.108    0.108
[ constraints ] ; from mdp
 3260  3263     1    0.108    0.108
[ constraints ] ; from mdp
 3264  3265     1    0.108    0.108
[ constraints ] ; from mdp
 3264  3266     1    0.108    0.108
[ bonds ]
 3264  3267     1    0.153   186188    0.153   186188
[ constraints ] ; from mdp
 3267  3268     1   0.1111   0.1111
[ constraints ] ; from mdp
 3267  3269     1   0.1111   0.1111
[ bonds ]
 3267  3274     1    0.143   284512    0.143   284512
[ bonds ]
 3270  3271     1    0.148   485344    0.148   485344
[ bonds ]
 3270  3272     1    0.148   485344    0.148   485344
[ bonds ]
 3270  3273     1     0.16   225936     0.16   225936
[ bonds ]
 3270  3274     1     0.16   225936     0.16   225936
[ bonds ]
 3273  3275     1    0.143   284512    0.143   284512
[ constraints ] ; from mdp
 3275  3276     1   0.1111   0.1111
[ constraints ] ; from mdp
 3275  3277     1   0.1111   0.1111
[ bonds ]
 3275  3278     1   0.1538   186188   0.1538   186188
[ constraints ] ; from mdp
 3278  3279     1   0.1111   0.1111
[ bonds ]
 3278  3280     1    0.143   284512    0.143   284512
[ bonds ]
 3278  3286     1   0.1538   186188   0.1538   186188
[ bonds ]
 3280  3281     1   0.1334   125520   0.1334   125520
[ bonds ]
 3281  3282     1    0.122   627600    0.122   627600
[ bonds ]
 3281  3283     1   0.1522   167360   0.1522   167360
[ constraints ] ; from mdp
 3283  3284     1   0.1111   0.1111
[ constraints ] ; from mdp
 3283  3285     1   0.1111   0.1111
[ bonds ]
 3283  3295     1    0.153   186188    0.153   186188
[ constraints ] ; from mdp
 3286  3287     1   0.1111   0.1111
[ constraints ] ; from mdp
 3286  3288     1   0.1111   0.1111
[ bonds ]
 3286  3289     1    0.143   284512    0.143   284512
[ bonds ]
 3289  3290     1   0.1334   125520   0.1334   125520
[ bonds ]
 3290  3291     1    0.122   627600    0.122   627600
[ bonds ]
 3290  3292     1   0.1522   167360   0.1522   167360
[ constraints ] ; from mdp
 3292  3293     1   0.1111   0.1111
[ constraints ] ; from mdp
 3292  3294     1   0.1111   0.1111
[ bonds ]
 3292  3338     1    0.153   186188    0.153   186188
[ constraints ] ; from mdp
 3295  3296     1   0.1111   0.1111
[ constraints ] ; from mdp
 3295  3297     1   0.1111   0.1111
[ bonds ]
 3295  3298     1    0.153   186188    0.153   186188
[ constraints ] ; from mdp
 3298  3299     1   0.1111   0.1111
[ constraints ] ; from mdp
 3298  3300     1   0.1111   0.1111
[ bonds ]
 3298  3301     1    0.153   186188    0.153   186188
[ constraints ] ; from mdp
 3301  3302     1   0.1111   0.1111
[ constraints ] ; from mdp
 3301  3303     1   0.1111   0.1111
[ bonds ]
 3301  3304     1    0.153   186188    0.153   186188
[ constraints ] ; from mdp
 3304  3305     1   0.1111   0.1111
[ constraints ] ; from mdp
 3304  3306     1   0.1111   0.1111
[ bonds ]
 3304  3307     1    0.153   186188    0.153   186188
[ constraints ] ; from mdp
 3307  3308     1   0.1111   0.1111
[ constraints ] ; from mdp
 3307  3309     1   0.1111   0.1111
[ bonds ]
 3307  3310     1    0.153   186188    0.153   186188
[ constraints ] ; from mdp
 3310  3311     1   0.1111   0.1111
[ constraints ] ; from mdp
 3310  3312     1   0.1111   0.1111
[ bonds ]
 3310  3313     1    0.153   186188    0.153   186188
[ constraints ] ; from mdp
 3313  3314     1   0.1111   0.1111
[ constraints ] ; from mdp
 3313  3315     1   0.1111   0.1111
[ bonds ]
 3313  3316     1    0.153   186188    0.153   186188
[ constraints ] ; from mdp
 3316  3317     1   0.1111   0.1111
[ constraints ] ; from mdp
 3316  3318     1   0.1111   0.1111
[ bonds ]
 3316  3319     1    0.153   186188    0.153   186188
[ constraints ] ; from mdp
 3319  3320     1   0.1111   0.1111
[ constraints ] ; from mdp
 3319  3321     1   0.1111   0.1111
[ bonds ]
 3319  3322     1    0.153   186188    0.153   186188
[ constraints ] ; from mdp
 3322  3323     1   0.1111   0.1111
[ constraints ] ; from mdp
 3322  3324     1   0.1111   0.1111
[ bonds ]
 3322  3325     1    0.153   186188    0.153   186188
[ constraints ] ; from mdp
 3325  3326     1   0.1111   0.1111
[ constraints ] ; from mdp
 3325  3327     1   0.1111   0.1111
[ bonds ]
 3325  3328     1    0.153   186188    0.153   186188
[ constraints ] ; from mdp
 3328  3329     1   0.1111   0.1111
[ constraints ] ; from mdp
 3328  3330     1   0.1111   0.1111
[ bonds ]
 3328  3331     1    0.153   186188    0.153   186188
[ constraints ] ; from mdp
 3331  3332     1   0.1111   0.1111
[ constraints ] ; from mdp
 3331  3333     1   0.1111   0.1111
[ bonds ]
 3331  3334     1   0.1528   186188   0.1528   186188
[ constraints ] ; from mdp
 3334  3335     1   0.1111   0.1111
[ constraints ] ; from mdp
 3334  3336     1   0.1111   0.1111
[ constraints ] ; from mdp
 3334  3337     1   0.1111   0.1111
[ constraints ] ; from mdp
 3338  3339     1   0.1111   0.1111
[ constraints ] ; from mdp
 3338  3340     1   0.1111   0.1111
[ bonds ]
 3338  3341     1    0.153   186188    0.153   186188
[ constraints ] ; from mdp
 3341  3342     1   0.1111   0.1111
[ constraints ] ; from mdp
 3341  3343     1   0.1111   0.1111
[ bonds ]
 3341  3344     1    0.153   186188    0.153   186188
[ constraints ] ; from mdp
 3344  3345     1   0.1111   0.1111
[ constraints ] ; from mdp
 3344  3346     1   0.1111   0.1111
[ bonds ]
 3344  3347     1    0.153   186188    0.153   186188
[ constraints ] ; from mdp
 3347  3348     1   0.1111   0.1111
[ constraints ] ; from mdp
 3347  3349     1   0.1111   0.1111
[ bonds ]
 3347  3350     1    0.153   186188    0.153   186188
[ constraints ] ; from mdp
 3350  3351     1   0.1111   0.1111
[ constraints ] ; from mdp
 3350  3352     1   0.1111   0.1111
[ bonds ]
 3350  3353     1    0.153   186188    0.153   186188
[ constraints ] ; from mdp
 3353  3354     1   0.1111   0.1111
[ constraints ] ; from mdp
 3353  3355     1   0.1111   0.1111
[ bonds ]
 3353  3356     1    0.153   186188    0.153   186188
[ constraints ] ; from mdp
 3356  3357     1   0.1111   0.1111
[ constraints ] ; from mdp
 3356  3358     1   0.1111   0.1111
[ bonds ]
 3356  3359     1    0.153   186188    0.153   186188
[ constraints ] ; from mdp
 3359  3360     1   0.1111   0.1111
[ constraints ] ; from mdp
 3359  3361     1   0.1111   0.1111
[ bonds ]
 3359  3362     1    0.153   186188    0.153   186188
[ constraints ] ; from mdp
 3362  3363     1   0.1111   0.1111
[ constraints ] ; from mdp
 3362  3364     1   0.1111   0.1111
[ bonds ]
 3362  3365     1    0.153   186188    0.153   186188
[ constraints ] ; from mdp
 3365  3366     1   0.1111   0.1111
[ constraints ] ; from mdp
 3365  3367     1   0.1111   0.1111
[ bonds ]
 3365  3368     1    0.153   186188    0.153   186188
[ constraints ] ; from mdp
 3368  3369     1   0.1111   0.1111
[ constraints ] ; from mdp
 3368  3370     1   0.1111   0.1111
[ bonds ]
 3368  3371     1    0.153   186188    0.153   186188
[ constraints ] ; from mdp
 3371  3372     1   0.1111   0.1111
[ constraints ] ; from mdp
 3371  3373     1   0.1111   0.1111
[ bonds ]
 3371  3374     1    0.153   186188    0.153   186188
[ constraints ] ; from mdp
 3374  3375     1   0.1111   0.1111
[ constraints ] ; from mdp
 3374  3376     1   0.1111   0.1111
[ bonds ]
 3374  3377     1   0.1528   186188   0.1528   186188
[ constraints ] ; from mdp
 3377  3378     1   0.1111   0.1111
[ constraints ] ; from mdp
 3377  3379     1   0.1111   0.1111
[ constraints ] ; from mdp
 3377  3380     1   0.1111   0.1111
[ bonds ]
 3381  3382     1    0.151   179912    0.151   179912
[ bonds ]
 3381  3386     1    0.151   179912    0.151   179912
[ bonds ]
 3381  3390     1    0.151   179912    0.151   179912
[ bonds ]
 3381  3394     1    0.151   179912    0.151   179912
[ constraints ] ; from mdp
 3382  3383     1    0.108    0.108
[ constraints ] ; from mdp
 3382  3384     1    0.108    0.108
[ constraints ] ; from mdp
 3382  3385     1    0.108    0.108
[ constraints ] ; from mdp
 3386  3387     1    0.108    0.108
[ constraints ] ; from mdp
 3386  3388     1    0.108    0.108
[ constraints ] ; from mdp
 3386  3389     1    0.108    0.108
[ constraints ] ; from mdp
 3390  3391     1    0.108    0.108
[ constraints ] ; from mdp
 3390  3392     1    0.108    0.108
[ constraints ] ; from mdp
 3390  3393     1    0.108    0.108
[ constraints ] ; from mdp
 3394  3395     1    0.108    0.108
[ constraints ] ; from mdp
 3394  3396     1    0.108    0.108
[ bonds ]
 3394  3397     1    0.153   186188    0.153   186188
[ constraints ] ; from mdp
 3397  3398     1   0.1111   0.1111
[ constraints ] ; from mdp
 3397  3399     1   0.1111   0.1111
[ bonds ]
 3397  3404     1    0.143   284512    0.143   284512
[ bonds ]
 3400  3401     1    0.148   485344    0.148   485344
[ bonds ]
 3400  3402     1    0.148   485344    0.148   485344
[ bonds ]
 3400  3403     1     0.16   225936     0.16   225936
[ bonds ]
 3400  3404     1     0.16   225936     0.16   225936
[ bonds ]
 3403  3405     1    0.143   284512    0.143   284512
[ constraints ] ; from mdp
 3405  3406     1   0.1111   0.1111
[ constraints ] ; from mdp
 3405  3407     1   0.1111   0.1111
[ bonds ]
 3405  3408     1   0.1538   186188   0.1538   186188
[ constraints ] ; from mdp
 3408  3409     1   0.1111   0.1111
[ bonds ]
 3408  3410     1    0.143   284512    0.143   284512
[ bonds ]
 3408  3416     1   0.1538   186188   0.1538   186188
[ bonds ]
 3410  3411     1   0.1334   125520   0.1334   125520
[ bonds ]
 3411  3412     1    0.122   627600    0.122   627600
[ bonds ]
 3411  3413     1   0.1522   167360   0.1522   167360
[ constraints ] ; from mdp
 3413  3414     1   0.1111   0.1111
[ constraints ] ; from mdp
 3413  3415     1   0.1111   0.1111
[ bonds ]
 3413  3425     1    0.153   186188    0.153   186188
[ constraints ] ; from mdp
 3416  3417     1   0.1111   0.1111
[ constraints ] ; from mdp
 3416  3418     1   0.1111   0.1111
[ bonds ]
 3416  3419     1    0.143   284512    0.143   284512
[ bonds ]
 3419  3420     1   0.1334   125520   0.1334   125520
[ bonds ]
 3420  3421     1    0.122   627600    0.122   627600
[ bonds ]
 3420  3422     1   0.1522   167360   0.1522   167360
[ constraints ] ; from mdp
 3422  3423     1   0.1111   0.1111
[ constraints ] ; from mdp
 3422  3424     1   0.1111   0.1111
[ bonds ]
 3422  3468     1    0.153   186188    0.153   186188
[ constraints ] ; from mdp
 3425  3426     1   0.1111   0.1111
[ constraints ] ; from mdp
 3425  3427     1   0.1111   0.1111
[ bonds ]
 3425  3428     1    0.153   186188    0.153   186188
[ constraints ] ; from mdp
 3428  3429     1   0.1111   0.1111
[ constraints ] ; from mdp
 3428  3430     1   0.1111   0.1111
[ bonds ]
 3428  3431     1    0.153   186188    0.153   186188
[ constraints ] ; from mdp
 3431  3432     1   0.1111   0.1111
[ constraints ] ; from mdp
 3431  3433     1   0.1111   0.1111
[ bonds ]
 3431  3434     1    0.153   186188    0.153   186188
[ constraints ] ; from mdp
 3434  3435     1   0.1111   0.1111
[ constraints ] ; from mdp
 3434  3436     1   0.1111   0.1111
[ bonds ]
 3434  3437     1    0.153   186188    0.153   186188
[ constraints ] ; from mdp
 3437  3438     1   0.1111   0.1111
[ constraints ] ; from mdp
 3437  3439     1   0.1111   0.1111
[ bonds ]
 3437  3440     1    0.153   186188    0.153   186188
[ constraints ] ; from mdp
 3440  3441     1   0.1111   0.1111
[ constraints ] ; from mdp
 3440  3442     1   0.1111   0.1111
[ bonds ]
 3440  3443     1    0.153   186188    0.153   186188
[ constraints ] ; from mdp
 3443  3444     1   0.1111   0.1111
[ constraints ] ; from mdp
 3443  3445     1   0.1111   0.1111
[ bonds ]
 3443  3446     1    0.153   186188    0.153   186188
[ constraints ] ; from mdp
 3446  3447     1   0.1111   0.1111
[ constraints ] ; from mdp
 3446  3448     1   0.1111   0.1111
[ bonds ]
 3446  3449     1    0.153   186188    0.153   186188
[ constraints ] ; from mdp
 3449  3450     1   0.1111   0.1111
[ constraints ] ; from mdp
 3449  3451     1   0.1111   0.1111
[ bonds ]
 3449  3452     1    0.153   186188    0.153   186188
[ constraints ] ; from mdp
 3452  3453     1   0.1111   0.1111
[ constraints ] ; from mdp
 3452  3454     1   0.1111   0.1111
[ bonds ]
 3452  3455     1    0.153   186188    0.153   186188
[ constraints ] ; from mdp
 3455  3456     1   0.1111   0.1111
[ constraints ] ; from mdp
 3455  3457     1   0.1111   0.1111
[ bonds ]
 3455  3458     1    0.153   186188    0.153   186188
[ constraints ] ; from mdp
 3458  3459     1   0.1111   0.1111
[ constraints ] ; from mdp
 3458  3460     1   0.1111   0.1111
[ bonds ]
 3458  3461     1    0.153   186188    0.153   186188
[ constraints ] ; from mdp
 3461  3462     1   0.1111   0.1111
[ constraints ] ; from mdp
 3461  3463     1   0.1111   0.1111
[ bonds ]
 3461  3464     1   0.1528   186188   0.1528   186188
[ constraints ] ; from mdp
 3464  3465     1   0.1111   0.1111
[ constraints ] ; from mdp
 3464  3466     1   0.1111   0.1111
[ constraints ] ; from mdp
 3464  3467     1   0.1111   0.1111
[ constraints ] ; from mdp
 3468  3469     1   0.1111   0.1111
[ constraints ] ; from mdp
 3468  3470     1   0.1111   0.1111
[ bonds ]
 3468  3471     1    0.153   186188    0.153   186188
[ constraints ] ; from mdp
 3471  3472     1   0.1111   0.1111
[ constraints ] ; from mdp
 3471  3473     1   0.1111   0.1111
[ bonds ]
 3471  3474     1    0.153   186188    0.153   186188
[ constraints ] ; from mdp
 3474  3475     1   0.1111   0.1111
[ constraints ] ; from mdp
 3474  3476     1   0.1111   0.1111
[ bonds ]
 3474  3477     1    0.153   186188    0.153   186188
[ constraints ] ; from mdp
 3477  3478     1   0.1111   0.1111
[ constraints ] ; from mdp
 3477  3479     1   0.1111   0.1111
[ bonds ]
 3477  3480     1    0.153   186188    0.153   186188
[ constraints ] ; from mdp
 3480  3481     1   0.1111   0.1111
[ constraints ] ; from mdp
 3480  3482     1   0.1111   0.1111
[ bonds ]
 3480  3483     1    0.153   186188    0.153   186188
[ constraints ] ; from mdp
 3483  3484     1   0.1111   0.1111
[ constraints ] ; from mdp
 3483  3485     1   0.1111   0.1111
[ bonds ]
 3483  3486     1    0.153   186188    0.153   186188
[ constraints ] ; from mdp
 3486  3487     1   0.1111   0.1111
[ constraints ] ; from mdp
 3486  3488     1   0.1111   0.1111
[ bonds ]
 3486  3489     1    0.153   186188    0.153   186188
[ constraints ] ; from mdp
 3489  3490     1   0.1111   0.1111
[ constraints ] ; from mdp
 3489  3491     1   0.1111   0.1111
[ bonds ]
 3489  3492     1    0.153   186188    0.153   186188
[ constraints ] ; from mdp
 3492  3493     1   0.1111   0.1111
[ constraints ] ; from mdp
 3492  3494     1   0.1111   0.1111
[ bonds ]
 3492  3495     1    0.153   186188    0.153   186188
[ constraints ] ; from mdp
 3495  3496     1   0.1111   0.1111
[ constraints ] ; from mdp
 3495  3497     1   0.1111   0.1111
[ bonds ]
 3495  3498     1    0.153   186188    0.153   186188
[ constraints ] ; from mdp
 3498  3499     1   0.1111   0.1111
[ constraints ] ; from mdp
 3498  3500     1   0.1111   0.1111
[ bonds ]
 3498  3501     1    0.153   186188    0.153   186188
[ constraints ] ; from mdp
 3501  3502     1   0.1111   0.1111
[ constraints ] ; from mdp
 3501  3503     1   0.1111   0.1111
[ bonds ]
 3501  3504     1    0.153   186188    0.153   186188
[ constraints ] ; from mdp
 3504  3505     1   0.1111   0.1111
[ constraints ] ; from mdp
 3504  3506     1   0.1111   0.1111
[ bonds ]
 3504  3507     1   0.1528   186188   0.1528   186188
[ constraints ] ; from mdp
 3507  3508     1   0.1111   0.1111
[ constraints ] ; from mdp
 3507  3509     1   0.1111   0.1111
[ constraints ] ; from mdp
 3507  3510     1   0.1111   0.1111
[ bonds ]
 3511  3512     1    0.151   179912    0.151   179912
[ bonds ]
 3511  3516     1    0.151   179912    0.151   179912
[ bonds ]
 3511  3520     1    0.151   179912    0.151   179912
[ bonds ]
 3511  3524     1    0.151   179912    0.151   179912
[ constraints ] ; from mdp
 3512  3513     1    0.108    0.108
[ constraints ] ; from mdp
 3512  3514     1    0.108    0.108
[ constraints ] ; from mdp
 3512  3515     1    0.108    0.108
[ constraints ] ; from mdp
 3516  3517     1    0.108    0.108
[ constraints ] ; from mdp
 3516  3518     1    0.108    0.108
[ constraints ] ; from mdp
 3516  3519     1    0.108    0.108
[ constraints ] ; from mdp
 3520  3521     1    0.108    0.108
[ constraints ] ; from mdp
 3520  3522     1    0.108    0.108
[ constraints ] ; from mdp
 3520  3523     1    0.108    0.108
[ constraints ] ; from mdp
 3524  3525     1    0.108    0.108
[ constraints ] ; from mdp
 3524  3526     1    0.108    0.108
[ bonds ]
 3524  3527     1    0.153   186188    0.153   186188
[ constraints ] ; from mdp
 3527  3528     1   0.1111   0.1111
[ constraints ] ; from mdp
 3527  3529     1   0.1111   0.1111
[ bonds ]
 3527  3534     1    0.143   284512    0.143   284512
[ bonds ]
 3530  3531     1    0.148   485344    0.148   485344
[ bonds ]
 3530  3532     1    0.148   485344    0.148   485344
[ bonds ]
 3530  3533     1     0.16   225936     0.16   225936
[ bonds ]
 3530  3534     1     0.16   225936     0.16   225936
[ bonds ]
 3533  3535     1    0.143   284512    0.143   284512
[ constraints ] ; from mdp
 3535  3536     1   0.1111   0.1111
[ constraints ] ; from mdp
 3535  3537     1   0.1111   0.1111
[ bonds ]
 3535  3538     1   0.1538   186188   0.1538   186188
[ constraints ] ; from mdp
 3538  3539     1   0.1111   0.1111
[ bonds ]
 3538  3540     1    0.143   284512    0.143   284512
[ bonds ]
 3538  3546     1   0.1538   186188   0.1538   186188
[ bonds ]
 3540  3541     1   0.1334   125520   0.1334   125520
[ bonds ]
 3541  3542     1    0.122   627600    0.122   627600
[ bonds ]
 3541  3543     1   0.1522   167360   0.1522   167360
[ constraints ] ; from mdp
 3543  3544     1   0.1111   0.1111
[ constraints ] ; from mdp
 3543  3545     1   0.1111   0.1111
[ bonds ]
 3543  3555     1    0.153   186188    0.153   186188
[ constraints ] ; from mdp
 3546  3547     1   0.1111   0.1111
[ constraints ] ; from mdp
 3546  3548     1   0.1111   0.1111
[ bonds ]
 3546  3549     1    0.143   284512    0.143   284512
[ bonds ]
 3549  3550     1   0.1334   125520   0.1334   125520
[ bonds ]
 3550  3551     1    0.122   627600    0.122   627600
[ bonds ]
 3550  3552     1   0.1522   167360   0.1522   167360
[ constraints ] ; from mdp
 3552  3553     1   0.1111   0.1111
[ constraints ] ; from mdp
 3552  3554     1   0.1111   0.1111
[ bonds ]
 3552  3598     1    0.153   186188    0.153   186188
[ constraints ] ; from mdp
 3555  3556     1   0.1111   0.1111
[ constraints ] ; from mdp
 3555  3557     1   0.1111   0.1111
[ bonds ]
 3555  3558     1    0.153   186188    0.153   186188
[ constraints ] ; from mdp
 3558  3559     1   0.1111   0.1111
[ constraints ] ; from mdp
 3558  3560     1   0.1111   0.1111
[ bonds ]
 3558  3561     1    0.153   186188    0.153   186188
[ constraints ] ; from mdp
 3561  3562     1   0.1111   0.1111
[ constraints ] ; from mdp
 3561  3563     1   0.1111   0.1111
[ bonds ]
 3561  3564     1    0.153   186188    0.153   186188
[ constraints ] ; from mdp
 3564  3565     1   0.1111   0.1111
[ constraints ] ; from mdp
 3564  3566     1   0.1111   0.1111
[ bonds ]
 3564  3567     1    0.153   186188    0.153   186188
[ constraints ] ; from mdp
 3567  3568     1   0.1111   0.1111
[ constraints ] ; from mdp
 3567  3569     1   0.1111   0.1111
[ bonds ]
 3567  3570     1    0.153   186188    0.153   186188
[ constraints ] ; from mdp
 3570  3571     1   0.1111   0.1111
[ constraints ] ; from mdp
 3570  3572     1   0.1111   0.1111
[ bonds ]
 3570  3573     1    0.153   186188    0.153   186188
[ constraints ] ; from mdp
 3573  3574     1   0.1111   0.1111
[ constraints ] ; from mdp
 3573  3575     1   0.1111   0.1111
[ bonds ]
 3573  3576     1    0.153   186188    0.153   186188
[ constraints ] ; from mdp
 3576  3577     1   0.1111   0.1111
[ constraints ] ; from mdp
 3576  3578     1   0.1111   0.1111
[ bonds ]
 3576  3579     1    0.153   186188    0.153   186188
[ constraints ] ; from mdp
 3579  3580     1   0.1111   0.1111
[ constraints ] ; from mdp
 3579  3581     1   0.1111   0.1111
[ bonds ]
 3579  3582     1    0.153   186188    0.153   186188
[ constraints ] ; from mdp
 3582  3583     1   0.1111   0.1111
[ constraints ] ; from mdp
 3582  3584     1   0.1111   0.1111
[ bonds ]
 3582  3585     1    0.153   186188    0.153   186188
[ constraints ] ; from mdp
 3585  3586     1   0.1111   0.1111
[ constraints ] ; from mdp
 3585  3587     1   0.1111   0.1111
[ bonds ]
 3585  3588     1    0.153   186188    0.153   186188
[ constraints ] ; from mdp
 3588  3589     1   0.1111   0.1111
[ constraints ] ; from mdp
 3588  3590     1   0.1111   0.1111
[ bonds ]
 3588  3591     1    0.153   186188    0.153   186188
[ constraints ] ; from mdp
 3591  3592     1   0.1111   0.1111
[ constraints ] ; from mdp
 3591  3593     1   0.1111   0.1111
[ bonds ]
 3591  3594     1   0.1528   186188   0.1528   186188
[ constraints ] ; from mdp
 3594  3595     1   0.1111   0.1111
[ constraints ] ; from mdp
 3594  3596     1   0.1111   0.1111
[ constraints ] ; from mdp
 3594  3597     1   0.1111   0.1111
[ constraints ] ; from mdp
 3598  3599     1   0.1111   0.1111
[ constraints ] ; from mdp
 3598  3600     1   0.1111   0.1111
[ bonds ]
 3598  3601     1    0.153   186188    0.153   186188
[ constraints ] ; from mdp
 3601  3602     1   0.1111   0.1111
[ constraints ] ; from mdp
 3601  3603     1   0.1111   0.1111
[ bonds ]
 3601  3604     1    0.153   186188    0.153   186188
[ constraints ] ; from mdp
 3604  3605     1   0.1111   0.1111
[ constraints ] ; from mdp
 3604  3606     1   0.1111   0.1111
[ bonds ]
 3604  3607     1    0.153   186188    0.153   186188
[ constraints ] ; from mdp
 3607  3608     1   0.1111   0.1111
[ constraints ] ; from mdp
 3607  3609     1   0.1111   0.1111
[ bonds ]
 3607  3610     1    0.153   186188    0.153   186188
[ constraints ] ; from mdp
 3610  3611     1   0.1111   0.1111
[ constraints ] ; from mdp
 3610  3612     1   0.1111   0.1111
[ bonds ]
 3610  3613     1    0.153   186188    0.153   186188
[ constraints ] ; from mdp
 3613  3614     1   0.1111   0.1111
[ constraints ] ; from mdp
 3613  3615     1   0.1111   0.1111
[ bonds ]
 3613  3616     1    0.153   186188    0.153   186188
[ constraints ] ; from mdp
 3616  3617     1   0.1111   0.1111
[ constraints ] ; from mdp
 3616  3618     1   0.1111   0.1111
[ bonds ]
 3616  3619     1    0.153   186188    0.153   186188
[ constraints ] ; from mdp
 3619  3620     1   0.1111   0.1111
[ constraints ] ; from mdp
 3619  3621     1   0.1111   0.1111
[ bonds ]
 3619  3622     1    0.153   186188    0.153   186188
[ constraints ] ; from mdp
 3622  3623     1   0.1111   0.1111
[ constraints ] ; from mdp
 3622  3624     1   0.1111   0.1111
[ bonds ]
 3622  3625     1    0.153   186188    0.153   186188
[ constraints ] ; from mdp
 3625  3626     1   0.1111   0.1111
[ constraints ] ; from mdp
 3625  3627     1   0.1111   0.1111
[ bonds ]
 3625  3628     1    0.153   186188    0.153   186188
[ constraints ] ; from mdp
 3628  3629     1   0.1111   0.1111
[ constraints ] ; from mdp
 3628  3630     1   0.1111   0.1111
[ bonds ]
 3628  3631     1    0.153   186188    0.153   186188
[ constraints ] ; from mdp
 3631  3632     1   0.1111   0.1111
[ constraints ] ; from mdp
 3631  3633     1   0.1111   0.1111
[ bonds ]
 3631  3634     1    0.153   186188    0.153   186188
[ constraints ] ; from mdp
 3634  3635     1   0.1111   0.1111
[ constraints ] ; from mdp
 3634  3636     1   0.1111   0.1111
[ bonds ]
 3634  3637     1   0.1528   186188   0.1528   186188
[ constraints ] ; from mdp
 3637  3638     1   0.1111   0.1111
[ constraints ] ; from mdp
 3637  3639     1   0.1111   0.1111
[ constraints ] ; from mdp
 3637  3640     1   0.1111   0.1111
[ bonds ]
 3641  3642     1    0.151   179912    0.151   179912
[ bonds ]
 3641  3646     1    0.151   179912    0.151   179912
[ bonds ]
 3641  3650     1    0.151   179912    0.151   179912
[ bonds ]
 3641  3654     1    0.151   179912    0.151   179912
[ constraints ] ; from mdp
 3642  3643     1    0.108    0.108
[ constraints ] ; from mdp
 3642  3644     1    0.108    0.108
[ constraints ] ; from mdp
 3642  3645     1    0.108    0.108
[ constraints ] ; from mdp
 3646  3647     1    0.108    0.108
[ constraints ] ; from mdp
 3646  3648     1    0.108    0.108
[ constraints ] ; from mdp
 3646  3649     1    0.108    0.108
[ constraints ] ; from mdp
 3650  3651     1    0.108    0.108
[ constraints ] ; from mdp
 3650  3652     1    0.108    0.108
[ constraints ] ; from mdp
 3650  3653     1    0.108    0.108
[ constraints ] ; from mdp
 3654  3655     1    0.108    0.108
[ constraints ] ; from mdp
 3654  3656     1    0.108    0.108
[ bonds ]
 3654  3657     1    0.153   186188    0.153   186188
[ constraints ] ; from mdp
 3657  3658     1   0.1111   0.1111
[ constraints ] ; from mdp
 3657  3659     1   0.1111   0.1111
[ bonds ]
 3657  3664     1    0.143   284512    0.143   284512
[ bonds ]
 3660  3661     1    0.148   485344    0.148   485344
[ bonds ]
 3660  3662     1    0.148   485344    0.148   485344
[ bonds ]
 3660  3663     1     0.16   225936     0.16   225936
[ bonds ]
 3660  3664     1     0.16   225936     0.16   225936
[ bonds ]
 3663  3665     1    0.143   284512    0.143   284512
[ constraints ] ; from mdp
 3665  3666     1   0.1111   0.1111
[ constraints ] ; from mdp
 3665  3667     1   0.1111   0.1111
[ bonds ]
 3665  3668     1   0.1538   186188   0.1538   186188
[ constraints ] ; from mdp
 3668  3669     1   0.1111   0.1111
[ bonds ]
 3668  3670     1    0.143   284512    0.143   284512
[ bonds ]
 3668  3676     1   0.1538   186188   0.1538   186188
[ bonds ]
 3670  3671     1   0.1334   125520   0.1334   125520
[ bonds ]
 3671  3672     1    0.122   627600    0.122   627600
[ bonds ]
 3671  3673     1   0.1522   167360   0.1522   167360
[ constraints ] ; from mdp
 3673  3674     1   0.1111   0.1111
[ constraints ] ; from mdp
 3673  3675     1   0.1111   0.1111
[ bonds ]
 3673  3685     1    0.153   186188    0.153   186188
[ constraints ] ; from mdp
 3676  3677     1   0.1111   0.1111
[ constraints ] ; from mdp
 3676  3678     1   0.1111   0.1111
[ bonds ]
 3676  3679     1    0.143   284512    0.143   284512
[ bonds ]
 3679  3680     1   0.1334   125520   0.1334   125520
[ bonds ]
 3680  3681     1    0.122   627600    0.122   627600
[ bonds ]
 3680  3682     1   0.1522   167360   0.1522   167360
[ constraints ] ; from mdp
 3682  3683     1   0.1111   0.1111
[ constraints ] ; from mdp
 3682  3684     1   0.1111   0.1111
[ bonds ]
 3682  3728     1    0.153   186188    0.153   186188
[ constraints ] ; from mdp
 3685  3686     1   0.1111   0.1111
[ constraints ] ; from mdp
 3685  3687     1   0.1111   0.1111
[ bonds ]
 3685  3688     1    0.153   186188    0.153   186188
[ constraints ] ; from mdp
 3688  3689     1   0.1111   0.1111
[ constraints ] ; from mdp
 3688  3690     1   0.1111   0.1111
[ bonds ]
 3688  3691     1    0.153   186188    0.153   186188
[ constraints ] ; from mdp
 3691  3692     1   0.1111   0.1111
[ constraints ] ; from mdp
 3691  3693     1   0.1111   0.1111
[ bonds ]
 3691  3694     1    0.153   186188    0.153   186188
[ constraints ] ; from mdp
 3694  3695     1   0.1111   0.1111
[ constraints ] ; from mdp
 3694  3696     1   0.1111   0.1111
[ bonds ]
 3694  3697     1    0.153   186188    0.153   186188
[ constraints ] ; from mdp
 3697  3698     1   0.1111   0.1111
[ constraints ] ; from mdp
 3697  3699     1   0.1111   0.1111
[ bonds ]
 3697  3700     1    0.153   186188    0.153   186188
[ constraints ] ; from mdp
 3700  3701     1   0.1111   0.1111
[ constraints ] ; from mdp
 3700  3702     1   0.1111   0.1111
[ bonds ]
 3700  3703     1    0.153   186188    0.153   186188
[ constraints ] ; from mdp
 3703  3704     1   0.1111   0.1111
[ constraints ] ; from mdp
 3703  3705     1   0.1111   0.1111
[ bonds ]
 3703  3706     1    0.153   186188    0.153   186188
[ constraints ] ; from mdp
 3706  3707     1   0.1111   0.1111
[ constraints ] ; from mdp
 3706  3708     1   0.1111   0.1111
[ bonds ]
 3706  3709     1    0.153   186188    0.153   186188
[ constraints ] ; from mdp
 3709  3710     1   0.1111   0.1111
[ constraints ] ; from mdp
 3709  3711     1   0.1111   0.1111
[ bonds ]
 3709  3712     1    0.153   186188    0.153   186188
[ constraints ] ; from mdp
 3712  3713     1   0.1111   0.1111
[ constraints ] ; from mdp
 3712  3714     1   0.1111   0.1111
[ bonds ]
 3712  3715     1    0.153   186188    0.153   186188
[ constraints ] ; from mdp
 3715  3716     1   0.1111   0.1111
[ constraints ] ; from mdp
 3715  3717     1   0.1111   0.1111
[ bonds ]
 3715  3718     1    0.153   186188    0.153   186188
[ constraints ] ; from mdp
 3718  3719     1   0.1111   0.1111
[ constraints ] ; from mdp
 3718  3720     1   0.1111   0.1111
[ bonds ]
 3718  3721     1    0.153   186188    0.153   186188
[ constraints ] ; from mdp
 3721  3722     1   0.1111   0.1111
[ constraints ] ; from mdp
 3721  3723     1   0.1111   0.1111
[ bonds ]
 3721  3724     1   0.1528   186188   0.1528   186188
[ constraints ] ; from mdp
 3724  3725     1   0.1111   0.1111
[ constraints ] ; from mdp
 3724  3726     1   0.1111   0.1111
[ constraints ] ; from mdp
 3724  3727     1   0.1111   0.1111
[ constraints ] ; from mdp
 3728  3729     1   0.1111   0.1111
[ constraints ] ; from mdp
 3728  3730     1   0.1111   0.1111
[ bonds ]
 3728  3731     1    0.153   186188    0.153   186188
[ constraints ] ; from mdp
 3731  3732     1   0.1111   0.1111
[ constraints ] ; from mdp
 3731  3733     1   0.1111   0.1111
[ bonds ]
 3731  3734     1    0.153   186188    0.153   186188
[ constraints ] ; from mdp
 3734  3735     1   0.1111   0.1111
[ constraints ] ; from mdp
 3734  3736     1   0.1111   0.1111
[ bonds ]
 3734  3737     1    0.153   186188    0.153   186188
[ constraints ] ; from mdp
 3737  3738     1   0.1111   0.1111
[ constraints ] ; from mdp
 3737  3739     1   0.1111   0.1111
[ bonds ]
 3737  3740     1    0.153   186188    0.153   186188
[ constraints ] ; from mdp
 3740  3741     1   0.1111   0.1111
[ constraints ] ; from mdp
 3740  3742     1   0.1111   0.1111
[ bonds ]
 3740  3743     1    0.153   186188    0.153   186188
[ constraints ] ; from mdp
 3743  3744     1   0.1111   0.1111
[ constraints ] ; from mdp
 3743  3745     1   0.1111   0.1111
[ bonds ]
 3743  3746     1    0.153   186188    0.153   186188
[ constraints ] ; from mdp
 3746  3747     1   0.1111   0.1111
[ constraints ] ; from mdp
 3746  3748     1   0.1111   0.1111
[ bonds ]
 3746  3749     1    0.153   186188    0.153   186188
[ constraints ] ; from mdp
 3749  3750     1   0.1111   0.1111
[ constraints ] ; from mdp
 3749  3751     1   0.1111   0.1111
[ bonds ]
 3749  3752     1    0.153   186188    0.153   186188
[ constraints ] ; from mdp
 3752  3753     1   0.1111   0.1111
[ constraints ] ; from mdp
 3752  3754     1   0.1111   0.1111
[ bonds ]
 3752  3755     1    0.153   186188    0.153   186188
[ constraints ] ; from mdp
 3755  3756     1   0.1111   0.1111
[ constraints ] ; from mdp
 3755  3757     1   0.1111   0.1111
[ bonds ]
 3755  3758     1    0.153   186188    0.153   186188
[ constraints ] ; from mdp
 3758  3759     1   0.1111   0.1111
[ constraints ] ; from mdp
 3758  3760     1   0.1111   0.1111
[ bonds ]
 3758  3761     1    0.153   186188    0.153   186188
[ constraints ] ; from mdp
 3761  3762     1   0.1111   0.1111
[ constraints ] ; from mdp
 3761  3763     1   0.1111   0.1111
[ bonds ]
 3761  3764     1    0.153   186188    0.153   186188
[ constraints ] ; from mdp
 3764  3765     1   0.1111   0.1111
[ constraints ] ; from mdp
 3764  3766     1   0.1111   0.1111
[ bonds ]
 3764  3767     1   0.1528   186188   0.1528   186188
[ constraints ] ; from mdp
 3767  3768     1   0.1111   0.1111
[ constraints ] ; from mdp
 3767  3769     1   0.1111   0.1111
[ constraints ] ; from mdp
 3767  3770     1   0.1111   0.1111
[ bonds ]
 3771  3772     1    0.151   179912    0.151   179912
[ bonds ]
 3771  3776     1    0.151   179912    0.151   179912
[ bonds ]
 3771  3780     1    0.151   179912    0.151   179912
[ bonds ]
 3771  3784     1    0.151   179912    0.151   179912
[ constraints ] ; from mdp
 3772  3773     1    0.108    0.108
[ constraints ] ; from mdp
 3772  3774     1    0.108    0.108
[ constraints ] ; from mdp
 3772  3775     1    0.108    0.108
[ constraints ] ; from mdp
 3776  3777     1    0.108    0.108
[ constraints ] ; from mdp
 3776  3778     1    0.108    0.108
[ constraints ] ; from mdp
 3776  3779     1    0.108    0.108
[ constraints ] ; from mdp
 3780  3781     1    0.108    0.108
[ constraints ] ; from mdp
 3780  3782     1    0.108    0.108
[ constraints ] ; from mdp
 3780  3783     1    0.108    0.108
[ constraints ] ; from mdp
 3784  3785     1    0.108    0.108
[ constraints ] ; from mdp
 3784  3786     1    0.108    0.108
[ bonds ]
 3784  3787     1    0.153   186188    0.153   186188
[ constraints ] ; from mdp
 3787  3788     1   0.1111   0.1111
[ constraints ] ; from mdp
 3787  3789     1   0.1111   0.1111
[ bonds ]
 3787  3794     1    0.143   284512    0.143   284512
[ bonds ]
 3790  3791     1    0.148   485344    0.148   485344
[ bonds ]
 3790  3792     1    0.148   485344    0.148   485344
[ bonds ]
 3790  3793     1     0.16   225936     0.16   225936
[ bonds ]
 3790  3794     1     0.16   225936     0.16   225936
[ bonds ]
 3793  3795     1    0.143   284512    0.143   284512
[ constraints ] ; from mdp
 3795  3796     1   0.1111   0.1111
[ constraints ] ; from mdp
 3795  3797     1   0.1111   0.1111
[ bonds ]
 3795  3798     1   0.1538   186188   0.1538   186188
[ constraints ] ; from mdp
 3798  3799     1   0.1111   0.1111
[ bonds ]
 3798  3800     1    0.143   284512    0.143   284512
[ bonds ]
 3798  3806     1   0.1538   186188   0.1538   186188
[ bonds ]
 3800  3801     1   0.1334   125520   0.1334   125520
[ bonds ]
 3801  3802     1    0.122   627600    0.122   627600
[ bonds ]
 3801  3803     1   0.1522   167360   0.1522   167360
[ constraints ] ; from mdp
 3803  3804     1   0.1111   0.1111
[ constraints ] ; from mdp
 3803  3805     1   0.1111   0.1111
[ bonds ]
 3803  3815     1    0.153   186188    0.153   186188
[ constraints ] ; from mdp
 3806  3807     1   0.1111   0.1111
[ constraints ] ; from mdp
 3806  3808     1   0.1111   0.1111
[ bonds ]
 3806  3809     1    0.143   284512    0.143   284512
[ bonds ]
 3809  3810     1   0.1334   125520   0.1334   125520
[ bonds ]
 3810  3811     1    0.122   627600    0.122   627600
[ bonds ]
 3810  3812     1   0.1522   167360   0.1522   167360
[ constraints ] ; from mdp
 3812  3813     1   0.1111   0.1111
[ constraints ] ; from mdp
 3812  3814     1   0.1111   0.1111
[ bonds ]
 3812  3858     1    0.153   186188    0.153   186188
[ constraints ] ; from mdp
 3815  3816     1   0.1111   0.1111
[ constraints ] ; from mdp
 3815  3817     1   0.1111   0.1111
[ bonds ]
 3815  3818     1    0.153   186188    0.153   186188
[ constraints ] ; from mdp
 3818  3819     1   0.1111   0.1111
[ constraints ] ; from mdp
 3818  3820     1   0.1111   0.1111
[ bonds ]
 3818  3821     1    0.153   186188    0.153   186188
[ constraints ] ; from mdp
 3821  3822     1   0.1111   0.1111
[ constraints ] ; from mdp
 3821  3823     1   0.1111   0.1111
[ bonds ]
 3821  3824     1    0.153   186188    0.153   186188
[ constraints ] ; from mdp
 3824  3825     1   0.1111   0.1111
[ constraints ] ; from mdp
 3824  3826     1   0.1111   0.1111
[ bonds ]
 3824  3827     1    0.153   186188    0.153   186188
[ constraints ] ; from mdp
 3827  3828     1   0.1111   0.1111
[ constraints ] ; from mdp
 3827  3829     1   0.1111   0.1111
[ bonds ]
 3827  3830     1    0.153   186188    0.153   186188
[ constraints ] ; from mdp
 3830  3831     1   0.1111   0.1111
[ constraints ] ; from mdp
 3830  3832     1   0.1111   0.1111
[ bonds ]
 3830  3833     1    0.153   186188    0.153   186188
[ constraints ] ; from mdp
 3833  3834     1   0.1111   0.1111
[ constraints ] ; from mdp
 3833  3835     1   0.1111   0.1111
[ bonds ]
 3833  3836     1    0.153   186188    0.153   186188
[ constraints ] ; from mdp
 3836  3837     1   0.1111   0.1111
[ constraints ] ; from mdp
 3836  3838     1   0.1111   0.1111
[ bonds ]
 3836  3839     1    0.153   186188    0.153   186188
[ constraints ] ; from mdp
 3839  3840     1   0.1111   0.1111
[ constraints ] ; from mdp
 3839  3841     1   0.1111   0.1111
[ bonds ]
 3839  3842     1    0.153   186188    0.153   186188
[ constraints ] ; from mdp
 3842  3843     1   0.1111   0.1111
[ constraints ] ; from mdp
 3842  3844     1   0.1111   0.1111
[ bonds ]
 3842  3845     1    0.153   186188    0.153   186188
[ constraints ] ; from mdp
 3845  3846     1   0.1111   0.1111
[ constraints ] ; from mdp
 3845  3847     1   0.1111   0.1111
[ bonds ]
 3845  3848     1    0.153   186188    0.153   186188
[ constraints ] ; from mdp
 3848  3849     1   0.1111   0.1111
[ constraints ] ; from mdp
 3848  3850     1   0.1111   0.1111
[ bonds ]
 3848  3851     1    0.153   186188    0.153   186188
[ constraints ] ; from mdp
 3851  3852     1   0.1111   0.1111
[ constraints ] ; from mdp
 3851  3853     1   0.1111   0.1111
[ bonds ]
 3851  3854     1   0.1528   186188   0.1528   186188
[ constraints ] ; from mdp
 3854  3855     1   0.1111   0.1111
[ constraints ] ; from mdp
 3854  3856     1   0.1111   0.1111
[ constraints ] ; from mdp
 3854  3857     1   0.1111   0.1111
[ constraints ] ; from mdp
 3858  3859     1   0.1111   0.1111
[ constraints ] ; from mdp
 3858  3860     1   0.1111   0.1111
[ bonds ]
 3858  3861     1    0.153   186188    0.153   186188
[ constraints ] ; from mdp
 3861  3862     1   0.1111   0.1111
[ constraints ] ; from mdp
 3861  3863     1   0.1111   0.1111
[ bonds ]
 3861  3864     1    0.153   186188    0.153   186188
[ constraints ] ; from mdp
 3864  3865     1   0.1111   0.1111
[ constraints ] ; from mdp
 3864  3866     1   0.1111   0.1111
[ bonds ]
 3864  3867     1    0.153   186188    0.153   186188
[ constraints ] ; from mdp
 3867  3868     1   0.1111   0.1111
[ constraints ] ; from mdp
 3867  3869     1   0.1111   0.1111
[ bonds ]
 3867  3870     1    0.153   186188    0.153   186188
[ constraints ] ; from mdp
 3870  3871     1   0.1111   0.1111
[ constraints ] ; from mdp
 3870  3872     1   0.1111   0.1111
[ bonds ]
 3870  3873     1    0.153   186188    0.153   186188
[ constraints ] ; from mdp
 3873  3874     1   0.1111   0.1111
[ constraints ] ; from mdp
 3873  3875     1   0.1111   0.1111
[ bonds ]
 3873  3876     1    0.153   186188    0.153   186188
[ constraints ] ; from mdp
 3876  3877     1   0.1111   0.1111
[ constraints ] ; from mdp
 3876  3878     1   0.1111   0.1111
[ bonds ]
 3876  3879     1    0.153   186188    0.153   186188
[ constraints ] ; from mdp
 3879  3880     1   0.1111   0.1111
[ constraints ] ; from mdp
 3879  3881     1   0.1111   0.1111
[ bonds ]
 3879  3882     1    0.153   186188    0.153   186188
[ constraints ] ; from mdp
 3882  3883     1   0.1111   0.1111
[ constraints ] ; from mdp
 3882  3884     1   0.1111   0.1111
[ bonds ]
 3882  3885     1    0.153   186188    0.153   186188
[ constraints ] ; from mdp
 3885  3886     1   0.1111   0.1111
[ constraints ] ; from mdp
 3885  3887     1   0.1111   0.1111
[ bonds ]
 3885  3888     1    0.153   186188    0.153   186188
[ constraints ] ; from mdp
 3888  3889     1   0.1111   0.1111
[ constraints ] ; from mdp
 3888  3890     1   0.1111   0.1111
[ bonds ]
 3888  3891     1    0.153   186188    0.153   186188
[ constraints ] ; from mdp
 3891  3892     1   0.1111   0.1111
[ constraints ] ; from mdp
 3891  3893     1   0.1111   0.1111
[ bonds ]
 3891  3894     1    0.153   186188    0.153   186188
[ constraints ] ; from mdp
 3894  3895     1   0.1111   0.1111
[ constraints ] ; from mdp
 3894  3896     1   0.1111   0.1111
[ bonds ]
 3894  3897     1   0.1528   186188   0.1528   186188
[ constraints ] ; from mdp
 3897  3898     1   0.1111   0.1111
[ constraints ] ; from mdp
 3897  3899     1   0.1111   0.1111
[ constraints ] ; from mdp
 3897  3900     1   0.1111   0.1111
[ bonds ]
 3901  3902     1    0.151   179912    0.151   179912
[ bonds ]
 3901  3906     1    0.151   179912    0.151   179912
[ bonds ]
 3901  3910     1    0.151   179912    0.151   179912
[ bonds ]
 3901  3914     1    0.151   179912    0.151   179912
[ constraints ] ; from mdp
 3902  3903     1    0.108    0.108
[ constraints ] ; from mdp
 3902  3904     1    0.108    0.108
[ constraints ] ; from mdp
 3902  3905     1    0.108    0.108
[ constraints ] ; from mdp
 3906  3907     1    0.108    0.108
[ constraints ] ; from mdp
 3906  3908     1    0.108    0.108
[ constraints ] ; from mdp
 3906  3909     1    0.108    0.108
[ constraints ] ; from mdp
 3910  3911     1    0.108    0.108
[ constraints ] ; from mdp
 3910  3912     1    0.108    0.108
[ constraints ] ; from mdp
 3910  3913     1    0.108    0.108
[ constraints ] ; from mdp
 3914  3915     1    0.108    0.108
[ constraints ] ; from mdp
 3914  3916     1    0.108    0.108
[ bonds ]
 3914  3917     1    0.153   186188    0.153   186188
[ constraints ] ; from mdp
 3917  3918     1   0.1111   0.1111
[ constraints ] ; from mdp
 3917  3919     1   0.1111   0.1111
[ bonds ]
 3917  3924     1    0.143   284512    0.143   284512
[ bonds ]
 3920  3921     1    0.148   485344    0.148   485344
[ bonds ]
 3920  3922     1    0.148   485344    0.148   485344
[ bonds ]
 3920  3923     1     0.16   225936     0.16   225936
[ bonds ]
 3920  3924     1     0.16   225936     0.16   225936
[ bonds ]
 3923  3925     1    0.143   284512    0.143   284512
[ constraints ] ; from mdp
 3925  3926     1   0.1111   0.1111
[ constraints ] ; from mdp
 3925  3927     1   0.1111   0.1111
[ bonds ]
 3925  3928     1   0.1538   186188   0.1538   186188
[ constraints ] ; from mdp
 3928  3929     1   0.1111   0.1111
[ bonds ]
 3928  3930     1    0.143   284512    0.143   284512
[ bonds ]
 3928  3936     1   0.1538   186188   0.1538   186188
[ bonds ]
 3930  3931     1   0.1334   125520   0.1334   125520
[ bonds ]
 3931  3932     1    0.122   627600    0.122   627600
[ bonds ]
 3931  3933     1   0.1522   167360   0.1522   167360
[ constraints ] ; from mdp
 3933  3934     1   0.1111   0.1111
[ constraints ] ; from mdp
 3933  3935     1   0.1111   0.1111
[ bonds ]
 3933  3945     1    0.153   186188    0.153   186188
[ constraints ] ; from mdp
 3936  3937     1   0.1111   0.1111
[ constraints ] ; from mdp
 3936  3938     1   0.1111   0.1111
[ bonds ]
 3936  3939     1    0.143   284512    0.143   284512
[ bonds ]
 3939  3940     1   0.1334   125520   0.1334   125520
[ bonds ]
 3940  3941     1    0.122   627600    0.122   627600
[ bonds ]
 3940  3942     1   0.1522   167360   0.1522   167360
[ constraints ] ; from mdp
 3942  3943     1   0.1111   0.1111
[ constraints ] ; from mdp
 3942  3944     1   0.1111   0.1111
[ bonds ]
 3942  3988     1    0.153   186188    0.153   186188
[ constraints ] ; from mdp
 3945  3946     1   0.1111   0.1111
[ constraints ] ; from mdp
 3945  3947     1   0.1111   0.1111
[ bonds ]
 3945  3948     1    0.153   186188    0.153   186188
[ constraints ] ; from mdp
 3948  3949     1   0.1111   0.1111
[ constraints ] ; from mdp
 3948  3950     1   0.1111   0.1111
[ bonds ]
 3948  3951     1    0.153   186188    0.153   186188
[ constraints ] ; from mdp
 3951  3952     1   0.1111   0.1111
[ constraints ] ; from mdp
 3951  3953     1   0.1111   0.1111
[ bonds ]
 3951  3954     1    0.153   186188    0.153   186188
[ constraints ] ; from mdp
 3954  3955     1   0.1111   0.1111
[ constraints ] ; from mdp
 3954  3956     1   0.1111   0.1111
[ bonds ]
 3954  3957     1    0.153   186188    0.153   186188
[ constraints ] ; from mdp
 3957  3958     1   0.1111   0.1111
[ constraints ] ; from mdp
 3957  3959     1   0.1111   0.1111
[ bonds ]
 3957  3960     1    0.153   186188    0.153   186188
[ constraints ] ; from mdp
 3960  3961     1   0.1111   0.1111
[ constraints ] ; from mdp
 3960  3962     1   0.1111   0.1111
[ bonds ]
 3960  3963     1    0.153   186188    0.153   186188
[ constraints ] ; from mdp
 3963  3964     1   0.1111   0.1111
[ constraints ] ; from mdp
 3963  3965     1   0.1111   0.1111
[ bonds ]
 3963  3966     1    0.153   186188    0.153   186188
[ constraints ] ; from mdp
 3966  3967     1   0.1111   0.1111
[ constraints ] ; from mdp
 3966  3968     1   0.1111   0.1111
[ bonds ]
 3966  3969     1    0.153   186188    0.153   186188
[ constraints ] ; from mdp
 3969  3970     1   0.1111   0.1111
[ constraints ] ; from mdp
 3969  3971     1   0.1111   0.1111
[ bonds ]
 3969  3972     1    0.153   186188    0.153   186188
[ constraints ] ; from mdp
 3972  3973     1   0.1111   0.1111
[ constraints ] ; from mdp
 3972  3974     1   0.1111   0.1111
[ bonds ]
 3972  3975     1    0.153   186188    0.153   186188
[ constraints ] ; from mdp
 3975  3976     1   0.1111   0.1111
[ constraints ] ; from mdp
 3975  3977     1   0.1111   0.1111
[ bonds ]
 3975  3978     1    0.153   186188    0.153   186188
[ constraints ] ; from mdp
 3978  3979     1   0.1111   0.1111
[ constraints ] ; from mdp
 3978  3980     1   0.1111   0.1111
[ bonds ]
 3978  3981     1    0.153   186188    0.153   186188
[ constraints ] ; from mdp
 3981  3982     1   0.1111   0.1111
[ constraints ] ; from mdp
 3981  3983     1   0.1111   0.1111
[ bonds ]
 3981  3984     1   0.1528   186188   0.1528   186188
[ constraints ] ; from mdp
 3984  3985     1   0.1111   0.1111
[ constraints ] ; from mdp
 3984  3986     1   0.1111   0.1111
[ constraints ] ; from mdp
 3984  3987     1   0.1111   0.1111
[ constraints ] ; from mdp
 3988  3989     1   0.1111   0.1111
[ constraints ] ; from mdp
 3988  3990     1   0.1111   0.1111
[ bonds ]
 3988  3991     1    0.153   186188    0.153   186188
[ constraints ] ; from mdp
 3991  3992     1   0.1111   0.1111
[ constraints ] ; from mdp
 3991  3993     1   0.1111   0.1111
[ bonds ]
 3991  3994     1    0.153   186188    0.153   186188
[ constraints ] ; from mdp
 3994  3995     1   0.1111   0.1111
[ constraints ] ; from mdp
 3994  3996     1   0.1111   0.1111
[ bonds ]
 3994  3997     1    0.153   186188    0.153   186188
[ constraints ] ; from mdp
 3997  3998     1   0.1111   0.1111
[ constraints ] ; from mdp
 3997  3999     1   0.1111   0.1111
[ bonds ]
 3997  4000     1    0.153   186188    0.153   186188
[ constraints ] ; from mdp
 4000  4001     1   0.1111   0.1111
[ constraints ] ; from mdp
 4000  4002     1   0.1111   0.1111
[ bonds ]
 4000  4003     1    0.153   186188    0.153   186188
[ constraints ] ; from mdp
 4003  4004     1   0.1111   0.1111
[ constraints ] ; from mdp
 4003  4005     1   0.1111   0.1111
[ bonds ]
 4003  4006     1    0.153   186188    0.153   186188
[ constraints ] ; from mdp
 4006  4007     1   0.1111   0.1111
[ constraints ] ; from mdp
 4006  4008     1   0.1111   0.1111
[ bonds ]
 4006  4009     1    0.153   186188    0.153   186188
[ constraints ] ; from mdp
 4009  4010     1   0.1111   0.1111
[ constraints ] ; from mdp
 4009  4011     1   0.1111   0.1111
[ bonds ]
 4009  4012     1    0.153   186188    0.153   186188
[ constraints ] ; from mdp
 4012  4013     1   0.1111   0.1111
[ constraints ] ; from mdp
 4012  4014     1   0.1111   0.1111
[ bonds ]
 4012  4015     1    0.153   186188    0.153   186188
[ constraints ] ; from mdp
 4015  4016     1   0.1111   0.1111
[ constraints ] ; from mdp
 4015  4017     1   0.1111   0.1111
[ bonds ]
 4015  4018     1    0.153   186188    0.153   186188
[ constraints ] ; from mdp
 4018  4019     1   0.1111   0.1111
[ constraints ] ; from mdp
 4018  4020     1   0.1111   0.1111
[ bonds ]
 4018  4021     1    0.153   186188    0.153   186188
[ constraints ] ; from mdp
 4021  4022     1   0.1111   0.1111
[ constraints ] ; from mdp
 4021  4023     1   0.1111   0.1111
[ bonds ]
 4021  4024     1    0.153   186188    0.153   186188
[ constraints ] ; from mdp
 4024  4025     1   0.1111   0.1111
[ constraints ] ; from mdp
 4024  4026     1   0.1111   0.1111
[ bonds ]
 4024  4027     1   0.1528   186188   0.1528   186188
[ constraints ] ; from mdp
 4027  4028     1   0.1111   0.1111
[ constraints ] ; from mdp
 4027  4029     1   0.1111   0.1111
[ constraints ] ; from mdp
 4027  4030     1   0.1111   0.1111
[ bonds ]
 4031  4032     1    0.151   179912    0.151   179912
[ bonds ]
 4031  4036     1    0.151   179912    0.151   179912
[ bonds ]
 4031  4040     1    0.151   179912    0.151   179912
[ bonds ]
 4031  4044     1    0.151   179912    0.151   179912
[ constraints ] ; from mdp
 4032  4033     1    0.108    0.108
[ constraints ] ; from mdp
 4032  4034     1    0.108    0.108
[ constraints ] ; from mdp
 4032  4035     1    0.108    0.108
[ constraints ] ; from mdp
 4036  4037     1    0.108    0.108
[ constraints ] ; from mdp
 4036  4038     1    0.108    0.108
[ constraints ] ; from mdp
 4036  4039     1    0.108    0.108
[ constraints ] ; from mdp
 4040  4041     1    0.108    0.108
[ constraints ] ; from mdp
 4040  4042     1    0.108    0.108
[ constraints ] ; from mdp
 4040  4043     1    0.108    0.108
[ constraints ] ; from mdp
 4044  4045     1    0.108    0.108
[ constraints ] ; from mdp
 4044  4046     1    0.108    0.108
[ bonds ]
 4044  4047     1    0.153   186188    0.153   186188
[ constraints ] ; from mdp
 4047  4048     1   0.1111   0.1111
[ constraints ] ; from mdp
 4047  4049     1   0.1111   0.1111
[ bonds ]
 4047  4054     1    0.143   284512    0.143   284512
[ bonds ]
 4050  4051     1    0.148   485344    0.148   485344
[ bonds ]
 4050  4052     1    0.148   485344    0.148   485344
[ bonds ]
 4050  4053     1     0.16   225936     0.16   225936
[ bonds ]
 4050  4054     1     0.16   225936     0.16   225936
[ bonds ]
 4053  4055     1    0.143   284512    0.143   284512
[ constraints ] ; from mdp
 4055  4056     1   0.1111   0.1111
[ constraints ] ; from mdp
 4055  4057     1   0.1111   0.1111
[ bonds ]
 4055  4058     1   0.1538   186188   0.1538   186188
[ constraints ] ; from mdp
 4058  4059     1   0.1111   0.1111
[ bonds ]
 4058  4060     1    0.143   284512    0.143   284512
[ bonds ]
 4058  4066     1   0.1538   186188   0.1538   186188
[ bonds ]
 4060  4061     1   0.1334   125520   0.1334   125520
[ bonds ]
 4061  4062     1    0.122   627600    0.122   627600
[ bonds ]
 4061  4063     1   0.1522   167360   0.1522   167360
[ constraints ] ; from mdp
 4063  4064     1   0.1111   0.1111
[ constraints ] ; from mdp
 4063  4065     1   0.1111   0.1111
[ bonds ]
 4063  4075     1    0.153   186188    0.153   186188
[ constraints ] ; from mdp
 4066  4067     1   0.1111   0.1111
[ constraints ] ; from mdp
 4066  4068     1   0.1111   0.1111
[ bonds ]
 4066  4069     1    0.143   284512    0.143   284512
[ bonds ]
 4069  4070     1   0.1334   125520   0.1334   125520
[ bonds ]
 4070  4071     1    0.122   627600    0.122   627600
[ bonds ]
 4070  4072     1   0.1522   167360   0.1522   167360
[ constraints ] ; from mdp
 4072  4073     1   0.1111   0.1111
[ constraints ] ; from mdp
 4072  4074     1   0.1111   0.1111
[ bonds ]
 4072  4118     1    0.153   186188    0.153   186188
[ constraints ] ; from mdp
 4075  4076     1   0.1111   0.1111
[ constraints ] ; from mdp
 4075  4077     1   0.1111   0.1111
[ bonds ]
 4075  4078     1    0.153   186188    0.153   186188
[ constraints ] ; from mdp
 4078  4079     1   0.1111   0.1111
[ constraints ] ; from mdp
 4078  4080     1   0.1111   0.1111
[ bonds ]
 4078  4081     1    0.153   186188    0.153   186188
[ constraints ] ; from mdp
 4081  4082     1   0.1111   0.1111
[ constraints ] ; from mdp
 4081  4083     1   0.1111   0.1111
[ bonds ]
 4081  4084     1    0.153   186188    0.153   186188
[ constraints ] ; from mdp
 4084  4085     1   0.1111   0.1111
[ constraints ] ; from mdp
 4084  4086     1   0.1111   0.1111
[ bonds ]
 4084  4087     1    0.153   186188    0.153   186188
[ constraints ] ; from mdp
 4087  4088     1   0.1111   0.1111
[ constraints ] ; from mdp
 4087  4089     1   0.1111   0.1111
[ bonds ]
 4087  4090     1    0.153   186188    0.153   186188
[ constraints ] ; from mdp
 4090  4091     1   0.1111   0.1111
[ constraints ] ; from mdp
 4090  4092     1   0.1111   0.1111
[ bonds ]
 4090  4093     1    0.153   186188    0.153   186188
[ constraints ] ; from mdp
 4093  4094     1   0.1111   0.1111
[ constraints ] ; from mdp
 4093  4095     1   0.1111   0.1111
[ bonds ]
 4093  4096     1    0.153   186188    0.153   186188
[ constraints ] ; from mdp
 4096  4097     1   0.1111   0.1111
[ constraints ] ; from mdp
 4096  4098     1   0.1111   0.1111
[ bonds ]
 4096  4099     1    0.153   186188    0.153   186188
[ constraints ] ; from mdp
 4099  4100     1   0.1111   0.1111
[ constraints ] ; from mdp
 4099  4101     1   0.1111   0.1111
[ bonds ]
 4099  4102     1    0.153   186188    0.153   186188
[ constraints ] ; from mdp
 4102  4103     1   0.1111   0.1111
[ constraints ] ; from mdp
 4102  4104     1   0.1111   0.1111
[ bonds ]
 4102  4105     1    0.153   186188    0.153   186188
[ constraints ] ; from mdp
 4105  4106     1   0.1111   0.1111
[ constraints ] ; from mdp
 4105  4107     1   0.1111   0.1111
[ bonds ]
 4105  4108     1    0.153   186188    0.153   186188
[ constraints ] ; from mdp
 4108  4109     1   0.1111   0.1111
[ constraints ] ; from mdp
 4108  4110     1   0.1111   0.1111
[ bonds ]
 4108  4111     1    0.153   186188    0.153   186188
[ constraints ] ; from mdp
 4111  4112     1   0.1111   0.1111
[ constraints ] ; from mdp
 4111  4113     1   0.1111   0.1111
[ bonds ]
 4111  4114     1   0.1528   186188   0.1528   186188
[ constraints ] ; from mdp
 4114  4115     1   0.1111   0.1111
[ constraints ] ; from mdp
 4114  4116     1   0.1111   0.1111
[ constraints ] ; from mdp
 4114  4117     1   0.1111   0.1111
[ constraints ] ; from mdp
 4118  4119     1   0.1111   0.1111
[ constraints ] ; from mdp
 4118  4120     1   0.1111   0.1111
[ bonds ]
 4118  4121     1    0.153   186188    0.153   186188
[ constraints ] ; from mdp
 4121  4122     1   0.1111   0.1111
[ constraints ] ; from mdp
 4121  4123     1   0.1111   0.1111
[ bonds ]
 4121  4124     1    0.153   186188    0.153   186188
[ constraints ] ; from mdp
 4124  4125     1   0.1111   0.1111
[ constraints ] ; from mdp
 4124  4126     1   0.1111   0.1111
[ bonds ]
 4124  4127     1    0.153   186188    0.153   186188
[ constraints ] ; from mdp
 4127  4128     1   0.1111   0.1111
[ constraints ] ; from mdp
 4127  4129     1   0.1111   0.1111
[ bonds ]
 4127  4130     1    0.153   186188    0.153   186188
[ constraints ] ; from mdp
 4130  4131     1   0.1111   0.1111
[ constraints ] ; from mdp
 4130  4132     1   0.1111   0.1111
[ bonds ]
 4130  4133     1    0.153   186188    0.153   186188
[ constraints ] ; from mdp
 4133  4134     1   0.1111   0.1111
[ constraints ] ; from mdp
 4133  4135     1   0.1111   0.1111
[ bonds ]
 4133  4136     1    0.153   186188    0.153   186188
[ constraints ] ; from mdp
 4136  4137     1   0.1111   0.1111
[ constraints ] ; from mdp
 4136  4138     1   0.1111   0.1111
[ bonds ]
 4136  4139     1    0.153   186188    0.153   186188
[ constraints ] ; from mdp
 4139  4140     1   0.1111   0.1111
[ constraints ] ; from mdp
 4139  4141     1   0.1111   0.1111
[ bonds ]
 4139  4142     1    0.153   186188    0.153   186188
[ constraints ] ; from mdp
 4142  4143     1   0.1111   0.1111
[ constraints ] ; from mdp
 4142  4144     1   0.1111   0.1111
[ bonds ]
 4142  4145     1    0.153   186188    0.153   186188
[ constraints ] ; from mdp
 4145  4146     1   0.1111   0.1111
[ constraints ] ; from mdp
 4145  4147     1   0.1111   0.1111
[ bonds ]
 4145  4148     1    0.153   186188    0.153   186188
[ constraints ] ; from mdp
 4148  4149     1   0.1111   0.1111
[ constraints ] ; from mdp
 4148  4150     1   0.1111   0.1111
[ bonds ]
 4148  4151     1    0.153   186188    0.153   186188
[ constraints ] ; from mdp
 4151  4152     1   0.1111   0.1111
[ constraints ] ; from mdp
 4151  4153     1   0.1111   0.1111
[ bonds ]
 4151  4154     1    0.153   186188    0.153   186188
[ constraints ] ; from mdp
 4154  4155     1   0.1111   0.1111
[ constraints ] ; from mdp
 4154  4156     1   0.1111   0.1111
[ bonds ]
 4154  4157     1   0.1528   186188   0.1528   186188
[ constraints ] ; from mdp
 4157  4158     1   0.1111   0.1111
[ constraints ] ; from mdp
 4157  4159     1   0.1111   0.1111
[ constraints ] ; from mdp
 4157  4160     1   0.1111   0.1111
[ bonds ]
 4161  4162     1    0.151   179912    0.151   179912
[ bonds ]
 4161  4166     1    0.151   179912    0.151   179912
[ bonds ]
 4161  4170     1    0.151   179912    0.151   179912
[ bonds ]
 4161  4174     1    0.151   179912    0.151   179912
[ constraints ] ; from mdp
 4162  4163     1    0.108    0.108
[ constraints ] ; from mdp
 4162  4164     1    0.108    0.108
[ constraints ] ; from mdp
 4162  4165     1    0.108    0.108
[ constraints ] ; from mdp
 4166  4167     1    0.108    0.108
[ constraints ] ; from mdp
 4166  4168     1    0.108    0.108
[ constraints ] ; from mdp
 4166  4169     1    0.108    0.108
[ constraints ] ; from mdp
 4170  4171     1    0.108    0.108
[ constraints ] ; from mdp
 4170  4172     1    0.108    0.108
[ constraints ] ; from mdp
 4170  4173     1    0.108    0.108
[ constraints ] ; from mdp
 4174  4175     1    0.108    0.108
[ constraints ] ; from mdp
 4174  4176     1    0.108    0.108
[ bonds ]
 4174  4177     1    0.153   186188    0.153   186188
[ constraints ] ; from mdp
 4177  4178     1   0.1111   0.1111
[ constraints ] ; from mdp
 4177  4179     1   0.1111   0.1111
[ bonds ]
 4177  4184     1    0.143   284512    0.143   284512
[ bonds ]
 4180  4181     1    0.148   485344    0.148   485344
[ bonds ]
 4180  4182     1    0.148   485344    0.148   485344
[ bonds ]
 4180  4183     1     0.16   225936     0.16   225936
[ bonds ]
 4180  4184     1     0.16   225936     0.16   225936
[ bonds ]
 4183  4185     1    0.143   284512    0.143   284512
[ constraints ] ; from mdp
 4185  4186     1   0.1111   0.1111
[ constraints ] ; from mdp
 4185  4187     1   0.1111   0.1111
[ bonds ]
 4185  4188     1   0.1538   186188   0.1538   186188
[ constraints ] ; from mdp
 4188  4189     1   0.1111   0.1111
[ bonds ]
 4188  4190     1    0.143   284512    0.143   284512
[ bonds ]
 4188  4196     1   0.1538   186188   0.1538   186188
[ bonds ]
 4190  4191     1   0.1334   125520   0.1334   125520
[ bonds ]
 4191  4192     1    0.122   627600    0.122   627600
[ bonds ]
 4191  4193     1   0.1522   167360   0.1522   167360
[ constraints ] ; from mdp
 4193  4194     1   0.1111   0.1111
[ constraints ] ; from mdp
 4193  4195     1   0.1111   0.1111
[ bonds ]
 4193  4205     1    0.153   186188    0.153   186188
[ constraints ] ; from mdp
 4196  4197     1   0.1111   0.1111
[ constraints ] ; from mdp
 4196  4198     1   0.1111   0.1111
[ bonds ]
 4196  4199     1    0.143   284512    0.143   284512
[ bonds ]
 4199  4200     1   0.1334   125520   0.1334   125520
[ bonds ]
 4200  4201     1    0.122   627600    0.122   627600
[ bonds ]
 4200  4202     1   0.1522   167360   0.1522   167360
[ constraints ] ; from mdp
 4202  4203     1   0.1111   0.1111
[ constraints ] ; from mdp
 4202  4204     1   0.1111   0.1111
[ bonds ]
 4202  4248     1    0.153   186188    0.153   186188
[ constraints ] ; from mdp
 4205  4206     1   0.1111   0.1111
[ constraints ] ; from mdp
 4205  4207     1   0.1111   0.1111
[ bonds ]
 4205  4208     1    0.153   186188    0.153   186188
[ constraints ] ; from mdp
 4208  4209     1   0.1111   0.1111
[ constraints ] ; from mdp
 4208  4210     1   0.1111   0.1111
[ bonds ]
 4208  4211     1    0.153   186188    0.153   186188
[ constraints ] ; from mdp
 4211  4212     1   0.1111   0.1111
[ constraints ] ; from mdp
 4211  4213     1   0.1111   0.1111
[ bonds ]
 4211  4214     1    0.153   186188    0.153   186188
[ constraints ] ; from mdp
 4214  4215     1   0.1111   0.1111
[ constraints ] ; from mdp
 4214  4216     1   0.1111   0.1111
[ bonds ]
 4214  4217     1    0.153   186188    0.153   186188
[ constraints ] ; from mdp
 4217  4218     1   0.1111   0.1111
[ constraints ] ; from mdp
 4217  4219     1   0.1111   0.1111
[ bonds ]
 4217  4220     1    0.153   186188    0.153   186188
[ constraints ] ; from mdp
 4220  4221     1   0.1111   0.1111
[ constraints ] ; from mdp
 4220  4222     1   0.1111   0.1111
[ bonds ]
 4220  4223     1    0.153   186188    0.153   186188
[ constraints ] ; from mdp
 4223  4224     1   0.1111   0.1111
[ constraints ] ; from mdp
 4223  4225     1   0.1111   0.1111
[ bonds ]
 4223  4226     1    0.153   186188    0.153   186188
[ constraints ] ; from mdp
 4226  4227     1   0.1111   0.1111
[ constraints ] ; from mdp
 4226  4228     1   0.1111   0.1111
[ bonds ]
 4226  4229     1    0.153   186188    0.153   186188
[ constraints ] ; from mdp
 4229  4230     1   0.1111   0.1111
[ constraints ] ; from mdp
 4229  4231     1   0.1111   0.1111
[ bonds ]
 4229  4232     1    0.153   186188    0.153   186188
[ constraints ] ; from mdp
 4232  4233     1   0.1111   0.1111
[ constraints ] ; from mdp
 4232  4234     1   0.1111   0.1111
[ bonds ]
 4232  4235     1    0.153   186188    0.153   186188
[ constraints ] ; from mdp
 4235  4236     1   0.1111   0.1111
[ constraints ] ; from mdp
 4235  4237     1   0.1111   0.1111
[ bonds ]
 4235  4238     1    0.153   186188    0.153   186188
[ constraints ] ; from mdp
 4238  4239     1   0.1111   0.1111
[ constraints ] ; from mdp
 4238  4240     1   0.1111   0.1111
[ bonds ]
 4238  4241     1    0.153   186188    0.153   186188
[ constraints ] ; from mdp
 4241  4242     1   0.1111   0.1111
[ constraints ] ; from mdp
 4241  4243     1   0.1111   0.1111
[ bonds ]
 4241  4244     1   0.1528   186188   0.1528   186188
[ constraints ] ; from mdp
 4244  4245     1   0.1111   0.1111
[ constraints ] ; from mdp
 4244  4246     1   0.1111   0.1111
[ constraints ] ; from mdp
 4244  4247     1   0.1111   0.1111
[ constraints ] ; from mdp
 4248  4249     1   0.1111   0.1111
[ constraints ] ; from mdp
 4248  4250     1   0.1111   0.1111
[ bonds ]
 4248  4251     1    0.153   186188    0.153   186188
[ constraints ] ; from mdp
 4251  4252     1   0.1111   0.1111
[ constraints ] ; from mdp
 4251  4253     1   0.1111   0.1111
[ bonds ]
 4251  4254     1    0.153   186188    0.153   186188
[ constraints ] ; from mdp
 4254  4255     1   0.1111   0.1111
[ constraints ] ; from mdp
 4254  4256     1   0.1111   0.1111
[ bonds ]
 4254  4257     1    0.153   186188    0.153   186188
[ constraints ] ; from mdp
 4257  4258     1   0.1111   0.1111
[ constraints ] ; from mdp
 4257  4259     1   0.1111   0.1111
[ bonds ]
 4257  4260     1    0.153   186188    0.153   186188
[ constraints ] ; from mdp
 4260  4261     1   0.1111   0.1111
[ constraints ] ; from mdp
 4260  4262     1   0.1111   0.1111
[ bonds ]
 4260  4263     1    0.153   186188    0.153   186188
[ constraints ] ; from mdp
 4263  4264     1   0.1111   0.1111
[ constraints ] ; from mdp
 4263  4265     1   0.1111   0.1111
[ bonds ]
 4263  4266     1    0.153   186188    0.153   186188
[ constraints ] ; from mdp
 4266  4267     1   0.1111   0.1111
[ constraints ] ; from mdp
 4266  4268     1   0.1111   0.1111
[ bonds ]
 4266  4269     1    0.153   186188    0.153   186188
[ constraints ] ; from mdp
 4269  4270     1   0.1111   0.1111
[ constraints ] ; from mdp
 4269  4271     1   0.1111   0.1111
[ bonds ]
 4269  4272     1    0.153   186188    0.153   186188
[ constraints ] ; from mdp
 4272  4273     1   0.1111   0.1111
[ constraints ] ; from mdp
 4272  4274     1   0.1111   0.1111
[ bonds ]
 4272  4275     1    0.153   186188    0.153   186188
[ constraints ] ; from mdp
 4275  4276     1   0.1111   0.1111
[ constraints ] ; from mdp
 4275  4277     1   0.1111   0.1111
[ bonds ]
 4275  4278     1    0.153   186188    0.153   186188
[ constraints ] ; from mdp
 4278  4279     1   0.1111   0.1111
[ constraints ] ; from mdp
 4278  4280     1   0.1111   0.1111
[ bonds ]
 4278  4281     1    0.153   186188    0.153   186188
[ constraints ] ; from mdp
 4281  4282     1   0.1111   0.1111
[ constraints ] ; from mdp
 4281  4283     1   0.1111   0.1111
[ bonds ]
 4281  4284     1    0.153   186188    0.153   186188
[ constraints ] ; from mdp
 4284  4285     1   0.1111   0.1111
[ constraints ] ; from mdp
 4284  4286     1   0.1111   0.1111
[ bonds ]
 4284  4287     1   0.1528   186188   0.1528   186188
[ constraints ] ; from mdp
 4287  4288     1   0.1111   0.1111
[ constraints ] ; from mdp
 4287  4289     1   0.1111   0.1111
[ constraints ] ; from mdp
 4287  4290     1   0.1111   0.1111
[ bonds ]
 4291  4292     1    0.151   179912    0.151   179912
[ bonds ]
 4291  4296     1    0.151   179912    0.151   179912
[ bonds ]
 4291  4300     1    0.151   179912    0.151   179912
[ bonds ]
 4291  4304     1    0.151   179912    0.151   179912
[ constraints ] ; from mdp
 4292  4293     1    0.108    0.108
[ constraints ] ; from mdp
 4292  4294     1    0.108    0.108
[ constraints ] ; from mdp
 4292  4295     1    0.108    0.108
[ constraints ] ; from mdp
 4296  4297     1    0.108    0.108
[ constraints ] ; from mdp
 4296  4298     1    0.108    0.108
[ constraints ] ; from mdp
 4296  4299     1    0.108    0.108
[ constraints ] ; from mdp
 4300  4301     1    0.108    0.108
[ constraints ] ; from mdp
 4300  4302     1    0.108    0.108
[ constraints ] ; from mdp
 4300  4303     1    0.108    0.108
[ constraints ] ; from mdp
 4304  4305     1    0.108    0.108
[ constraints ] ; from mdp
 4304  4306     1    0.108    0.108
[ bonds ]
 4304  4307     1    0.153   186188    0.153   186188
[ constraints ] ; from mdp
 4307  4308     1   0.1111   0.1111
[ constraints ] ; from mdp
 4307  4309     1   0.1111   0.1111
[ bonds ]
 4307  4314     1    0.143   284512    0.143   284512
[ bonds ]
 4310  4311     1    0.148   485344    0.148   485344
[ bonds ]
 4310  4312     1    0.148   485344    0.148   485344
[ bonds ]
 4310  4313     1     0.16   225936     0.16   225936
[ bonds ]
 4310  4314     1     0.16   225936     0.16   225936
[ bonds ]
 4313  4315     1    0.143   284512    0.143   284512
[ constraints ] ; from mdp
 4315  4316     1   0.1111   0.1111
[ constraints ] ; from mdp
 4315  4317     1   0.1111   0.1111
[ bonds ]
 4315  4318     1   0.1538   186188   0.1538   186188
[ constraints ] ; from mdp
 4318  4319     1   0.1111   0.1111
[ bonds ]
 4318  4320     1    0.143   284512    0.143   284512
[ bonds ]
 4318  4326     1   0.1538   186188   0.1538   186188
[ bonds ]
 4320  4321     1   0.1334   125520   0.1334   125520
[ bonds ]
 4321  4322     1    0.122   627600    0.122   627600
[ bonds ]
 4321  4323     1   0.1522   167360   0.1522   167360
[ constraints ] ; from mdp
 4323  4324     1   0.1111   0.1111
[ constraints ] ; from mdp
 4323  4325     1   0.1111   0.1111
[ bonds ]
 4323  4335     1    0.153   186188    0.153   186188
[ constraints ] ; from mdp
 4326  4327     1   0.1111   0.1111
[ constraints ] ; from mdp
 4326  4328     1   0.1111   0.1111
[ bonds ]
 4326  4329     1    0.143   284512    0.143   284512
[ bonds ]
 4329  4330     1   0.1334   125520   0.1334   125520
[ bonds ]
 4330  4331     1    0.122   627600    0.122   627600
[ bonds ]
 4330  4332     1   0.1522   167360   0.1522   167360
[ constraints ] ; from mdp
 4332  4333     1   0.1111   0.1111
[ constraints ] ; from mdp
 4332  4334     1   0.1111   0.1111
[ bonds ]
 4332  4378     1    0.153   186188    0.153   186188
[ constraints ] ; from mdp
 4335  4336     1   0.1111   0.1111
[ constraints ] ; from mdp
 4335  4337     1   0.1111   0.1111
[ bonds ]
 4335  4338     1    0.153   186188    0.153   186188
[ constraints ] ; from mdp
 4338  4339     1   0.1111   0.1111
[ constraints ] ; from mdp
 4338  4340     1   0.1111   0.1111
[ bonds ]
 4338  4341     1    0.153   186188    0.153   186188
[ constraints ] ; from mdp
 4341  4342     1   0.1111   0.1111
[ constraints ] ; from mdp
 4341  4343     1   0.1111   0.1111
[ bonds ]
 4341  4344     1    0.153   186188    0.153   186188
[ constraints ] ; from mdp
 4344  4345     1   0.1111   0.1111
[ constraints ] ; from mdp
 4344  4346     1   0.1111   0.1111
[ bonds ]
 4344  4347     1    0.153   186188    0.153   186188
[ constraints ] ; from mdp
 4347  4348     1   0.1111   0.1111
[ constraints ] ; from mdp
 4347  4349     1   0.1111   0.1111
[ bonds ]
 4347  4350     1    0.153   186188    0.153   186188
[ constraints ] ; from mdp
 4350  4351     1   0.1111   0.1111
[ constraints ] ; from mdp
 4350  4352     1   0.1111   0.1111
[ bonds ]
 4350  4353     1    0.153   186188    0.153   186188
[ constraints ] ; from mdp
 4353  4354     1   0.1111   0.1111
[ constraints ] ; from mdp
 4353  4355     1   0.1111   0.1111
[ bonds ]
 4353  4356     1    0.153   186188    0.153   186188
[ constraints ] ; from mdp
 4356  4357     1   0.1111   0.1111
[ constraints ] ; from mdp
 4356  4358     1   0.1111   0.1111
[ bonds ]
 4356  4359     1    0.153   186188    0.153   186188
[ constraints ] ; from mdp
 4359  4360     1   0.1111   0.1111
[ constraints ] ; from mdp
 4359  4361     1   0.1111   0.1111
[ bonds ]
 4359  4362     1    0.153   186188    0.153   186188
[ constraints ] ; from mdp
 4362  4363     1   0.1111   0.1111
[ constraints ] ; from mdp
 4362  4364     1   0.1111   0.1111
[ bonds ]
 4362  4365     1    0.153   186188    0.153   186188
[ constraints ] ; from mdp
 4365  4366     1   0.1111   0.1111
[ constraints ] ; from mdp
 4365  4367     1   0.1111   0.1111
[ bonds ]
 4365  4368     1    0.153   186188    0.153   186188
[ constraints ] ; from mdp
 4368  4369     1   0.1111   0.1111
[ constraints ] ; from mdp
 4368  4370     1   0.1111   0.1111
[ bonds ]
 4368  4371     1    0.153   186188    0.153   186188
[ constraints ] ; from mdp
 4371  4372     1   0.1111   0.1111
[ constraints ] ; from mdp
 4371  4373     1   0.1111   0.1111
[ bonds ]
 4371  4374     1   0.1528   186188   0.1528   186188
[ constraints ] ; from mdp
 4374  4375     1   0.1111   0.1111
[ constraints ] ; from mdp
 4374  4376     1   0.1111   0.1111
[ constraints ] ; from mdp
 4374  4377     1   0.1111   0.1111
[ constraints ] ; from mdp
 4378  4379     1   0.1111   0.1111
[ constraints ] ; from mdp
 4378  4380     1   0.1111   0.1111
[ bonds ]
 4378  4381     1    0.153   186188    0.153   186188
[ constraints ] ; from mdp
 4381  4382     1   0.1111   0.1111
[ constraints ] ; from mdp
 4381  4383     1   0.1111   0.1111
[ bonds ]
 4381  4384     1    0.153   186188    0.153   186188
[ constraints ] ; from mdp
 4384  4385     1   0.1111   0.1111
[ constraints ] ; from mdp
 4384  4386     1   0.1111   0.1111
[ bonds ]
 4384  4387     1    0.153   186188    0.153   186188
[ constraints ] ; from mdp
 4387  4388     1   0.1111   0.1111
[ constraints ] ; from mdp
 4387  4389     1   0.1111   0.1111
[ bonds ]
 4387  4390     1    0.153   186188    0.153   186188
[ constraints ] ; from mdp
 4390  4391     1   0.1111   0.1111
[ constraints ] ; from mdp
 4390  4392     1   0.1111   0.1111
[ bonds ]
 4390  4393     1    0.153   186188    0.153   186188
[ constraints ] ; from mdp
 4393  4394     1   0.1111   0.1111
[ constraints ] ; from mdp
 4393  4395     1   0.1111   0.1111
[ bonds ]
 4393  4396     1    0.153   186188    0.153   186188
[ constraints ] ; from mdp
 4396  4397     1   0.1111   0.1111
[ constraints ] ; from mdp
 4396  4398     1   0.1111   0.1111
[ bonds ]
 4396  4399     1    0.153   186188    0.153   186188
[ constraints ] ; from mdp
 4399  4400     1   0.1111   0.1111
[ constraints ] ; from mdp
 4399  4401     1   0.1111   0.1111
[ bonds ]
 4399  4402     1    0.153   186188    0.153   186188
[ constraints ] ; from mdp
 4402  4403     1   0.1111   0.1111
[ constraints ] ; from mdp
 4402  4404     1   0.1111   0.1111
[ bonds ]
 4402  4405     1    0.153   186188    0.153   186188
[ constraints ] ; from mdp
 4405  4406     1   0.1111   0.1111
[ constraints ] ; from mdp
 4405  4407     1   0.1111   0.1111
[ bonds ]
 4405  4408     1    0.153   186188    0.153   186188
[ constraints ] ; from mdp
 4408  4409     1   0.1111   0.1111
[ constraints ] ; from mdp
 4408  4410     1   0.1111   0.1111
[ bonds ]
 4408  4411     1    0.153   186188    0.153   186188
[ constraints ] ; from mdp
 4411  4412     1   0.1111   0.1111
[ constraints ] ; from mdp
 4411  4413     1   0.1111   0.1111
[ bonds ]
 4411  4414     1    0.153   186188    0.153   186188
[ constraints ] ; from mdp
 4414  4415     1   0.1111   0.1111
[ constraints ] ; from mdp
 4414  4416     1   0.1111   0.1111
[ bonds ]
 4414  4417     1   0.1528   186188   0.1528   186188
[ constraints ] ; from mdp
 4417  4418     1   0.1111   0.1111
[ constraints ] ; from mdp
 4417  4419     1   0.1111   0.1111
[ constraints ] ; from mdp
 4417  4420     1   0.1111   0.1111
[ bonds ]
 4421  4422     1    0.151   179912    0.151   179912
[ bonds ]
 4421  4426     1    0.151   179912    0.151   179912
[ bonds ]
 4421  4430     1    0.151   179912    0.151   179912
[ bonds ]
 4421  4434     1    0.151   179912    0.151   179912
[ constraints ] ; from mdp
 4422  4423     1    0.108    0.108
[ constraints ] ; from mdp
 4422  4424     1    0.108    0.108
[ constraints ] ; from mdp
 4422  4425     1    0.108    0.108
[ constraints ] ; from mdp
 4426  4427     1    0.108    0.108
[ constraints ] ; from mdp
 4426  4428     1    0.108    0.108
[ constraints ] ; from mdp
 4426  4429     1    0.108    0.108
[ constraints ] ; from mdp
 4430  4431     1    0.108    0.108
[ constraints ] ; from mdp
 4430  4432     1    0.108    0.108
[ constraints ] ; from mdp
 4430  4433     1    0.108    0.108
[ constraints ] ; from mdp
 4434  4435     1    0.108    0.108
[ constraints ] ; from mdp
 4434  4436     1    0.108    0.108
[ bonds ]
 4434  4437     1    0.153   186188    0.153   186188
[ constraints ] ; from mdp
 4437  4438     1   0.1111   0.1111
[ constraints ] ; from mdp
 4437  4439     1   0.1111   0.1111
[ bonds ]
 4437  4444     1    0.143   284512    0.143   284512
[ bonds ]
 4440  4441     1    0.148   485344    0.148   485344
[ bonds ]
 4440  4442     1    0.148   485344    0.148   485344
[ bonds ]
 4440  4443     1     0.16   225936     0.16   225936
[ bonds ]
 4440  4444     1     0.16   225936     0.16   225936
[ bonds ]
 4443  4445     1    0.143   284512    0.143   284512
[ constraints ] ; from mdp
 4445  4446     1   0.1111   0.1111
[ constraints ] ; from mdp
 4445  4447     1   0.1111   0.1111
[ bonds ]
 4445  4448     1   0.1538   186188   0.1538   186188
[ constraints ] ; from mdp
 4448  4449     1   0.1111   0.1111
[ bonds ]
 4448  4450     1    0.143   284512    0.143   284512
[ bonds ]
 4448  4456     1   0.1538   186188   0.1538   186188
[ bonds ]
 4450  4451     1   0.1334   125520   0.1334   125520
[ bonds ]
 4451  4452     1    0.122   627600    0.122   627600
[ bonds ]
 4451  4453     1   0.1522   167360   0.1522   167360
[ constraints ] ; from mdp
 4453  4454     1   0.1111   0.1111
[ constraints ] ; from mdp
 4453  4455     1   0.1111   0.1111
[ bonds ]
 4453  4465     1    0.153   186188    0.153   186188
[ constraints ] ; from mdp
 4456  4457     1   0.1111   0.1111
[ constraints ] ; from mdp
 4456  4458     1   0.1111   0.1111
[ bonds ]
 4456  4459     1    0.143   284512    0.143   284512
[ bonds ]
 4459  4460     1   0.1334   125520   0.1334   125520
[ bonds ]
 4460  4461     1    0.122   627600    0.122   627600
[ bonds ]
 4460  4462     1   0.1522   167360   0.1522   167360
[ constraints ] ; from mdp
 4462  4463     1   0.1111   0.1111
[ constraints ] ; from mdp
 4462  4464     1   0.1111   0.1111
[ bonds ]
 4462  4508     1    0.153   186188    0.153   186188
[ constraints ] ; from mdp
 4465  4466     1   0.1111   0.1111
[ constraints ] ; from mdp
 4465  4467     1   0.1111   0.1111
[ bonds ]
 4465  4468     1    0.153   186188    0.153   186188
[ constraints ] ; from mdp
 4468  4469     1   0.1111   0.1111
[ constraints ] ; from mdp
 4468  4470     1   0.1111   0.1111
[ bonds ]
 4468  4471     1    0.153   186188    0.153   186188
[ constraints ] ; from mdp
 4471  4472     1   0.1111   0.1111
[ constraints ] ; from mdp
 4471  4473     1   0.1111   0.1111
[ bonds ]
 4471  4474     1    0.153   186188    0.153   186188
[ constraints ] ; from mdp
 4474  4475     1   0.1111   0.1111
[ constraints ] ; from mdp
 4474  4476     1   0.1111   0.1111
[ bonds ]
 4474  4477     1    0.153   186188    0.153   186188
[ constraints ] ; from mdp
 4477  4478     1   0.1111   0.1111
[ constraints ] ; from mdp
 4477  4479     1   0.1111   0.1111
[ bonds ]
 4477  4480     1    0.153   186188    0.153   186188
[ constraints ] ; from mdp
 4480  4481     1   0.1111   0.1111
[ constraints ] ; from mdp
 4480  4482     1   0.1111   0.1111
[ bonds ]
 4480  4483     1    0.153   186188    0.153   186188
[ constraints ] ; from mdp
 4483  4484     1   0.1111   0.1111
[ constraints ] ; from mdp
 4483  4485     1   0.1111   0.1111
[ bonds ]
 4483  4486     1    0.153   186188    0.153   186188
[ constraints ] ; from mdp
 4486  4487     1   0.1111   0.1111
[ constraints ] ; from mdp
 4486  4488     1   0.1111   0.1111
[ bonds ]
 4486  4489     1    0.153   186188    0.153   186188
[ constraints ] ; from mdp
 4489  4490     1   0.1111   0.1111
[ constraints ] ; from mdp
 4489  4491     1   0.1111   0.1111
[ bonds ]
 4489  4492     1    0.153   186188    0.153   186188
[ constraints ] ; from mdp
 4492  4493     1   0.1111   0.1111
[ constraints ] ; from mdp
 4492  4494     1   0.1111   0.1111
[ bonds ]
 4492  4495     1    0.153   186188    0.153   186188
[ constraints ] ; from mdp
 4495  4496     1   0.1111   0.1111
[ constraints ] ; from mdp
 4495  4497     1   0.1111   0.1111
[ bonds ]
 4495  4498     1    0.153   186188    0.153   186188
[ constraints ] ; from mdp
 4498  4499     1   0.1111   0.1111
[ constraints ] ; from mdp
 4498  4500     1   0.1111   0.1111
[ bonds ]
 4498  4501     1    0.153   186188    0.153   186188
[ constraints ] ; from mdp
 4501  4502     1   0.1111   0.1111
[ constraints ] ; from mdp
 4501  4503     1   0.1111   0.1111
[ bonds ]
 4501  4504     1   0.1528   186188   0.1528   186188
[ constraints ] ; from mdp
 4504  4505     1   0.1111   0.1111
[ constraints ] ; from mdp
 4504  4506     1   0.1111   0.1111
[ constraints ] ; from mdp
 4504  4507     1   0.1111   0.1111
[ constraints ] ; from mdp
 4508  4509     1   0.1111   0.1111
[ constraints ] ; from mdp
 4508  4510     1   0.1111   0.1111
[ bonds ]
 4508  4511     1    0.153   186188    0.153   186188
[ constraints ] ; from mdp
 4511  4512     1   0.1111   0.1111
[ constraints ] ; from mdp
 4511  4513     1   0.1111   0.1111
[ bonds ]
 4511  4514     1    0.153   186188    0.153   186188
[ constraints ] ; from mdp
 4514  4515     1   0.1111   0.1111
[ constraints ] ; from mdp
 4514  4516     1   0.1111   0.1111
[ bonds ]
 4514  4517     1    0.153   186188    0.153   186188
[ constraints ] ; from mdp
 4517  4518     1   0.1111   0.1111
[ constraints ] ; from mdp
 4517  4519     1   0.1111   0.1111
[ bonds ]
 4517  4520     1    0.153   186188    0.153   186188
[ constraints ] ; from mdp
 4520  4521     1   0.1111   0.1111
[ constraints ] ; from mdp
 4520  4522     1   0.1111   0.1111
[ bonds ]
 4520  4523     1    0.153   186188    0.153   186188
[ constraints ] ; from mdp
 4523  4524     1   0.1111   0.1111
[ constraints ] ; from mdp
 4523  4525     1   0.1111   0.1111
[ bonds ]
 4523  4526     1    0.153   186188    0.153   186188
[ constraints ] ; from mdp
 4526  4527     1   0.1111   0.1111
[ constraints ] ; from mdp
 4526  4528     1   0.1111   0.1111
[ bonds ]
 4526  4529     1    0.153   186188    0.153   186188
[ constraints ] ; from mdp
 4529  4530     1   0.1111   0.1111
[ constraints ] ; from mdp
 4529  4531     1   0.1111   0.1111
[ bonds ]
 4529  4532     1    0.153   186188    0.153   186188
[ constraints ] ; from mdp
 4532  4533     1   0.1111   0.1111
[ constraints ] ; from mdp
 4532  4534     1   0.1111   0.1111
[ bonds ]
 4532  4535     1    0.153   186188    0.153   186188
[ constraints ] ; from mdp
 4535  4536     1   0.1111   0.1111
[ constraints ] ; from mdp
 4535  4537     1   0.1111   0.1111
[ bonds ]
 4535  4538     1    0.153   186188    0.153   186188
[ constraints ] ; from mdp
 4538  4539     1   0.1111   0.1111
[ constraints ] ; from mdp
 4538  4540     1   0.1111   0.1111
[ bonds ]
 4538  4541     1    0.153   186188    0.153   186188
[ constraints ] ; from mdp
 4541  4542     1   0.1111   0.1111
[ constraints ] ; from mdp
 4541  4543     1   0.1111   0.1111
[ bonds ]
 4541  4544     1    0.153   186188    0.153   186188
[ constraints ] ; from mdp
 4544  4545     1   0.1111   0.1111
[ constraints ] ; from mdp
 4544  4546     1   0.1111   0.1111
[ bonds ]
 4544  4547     1   0.1528   186188   0.1528   186188
[ constraints ] ; from mdp
 4547  4548     1   0.1111   0.1111
[ constraints ] ; from mdp
 4547  4549     1   0.1111   0.1111
[ constraints ] ; from mdp
 4547  4550     1   0.1111   0.1111
[ bonds ]
 4551  4552     1    0.151   179912    0.151   179912
[ bonds ]
 4551  4556     1    0.151   179912    0.151   179912
[ bonds ]
 4551  4560     1    0.151   179912    0.151   179912
[ bonds ]
 4551  4564     1    0.151   179912    0.151   179912
[ constraints ] ; from mdp
 4552  4553     1    0.108    0.108
[ constraints ] ; from mdp
 4552  4554     1    0.108    0.108
[ constraints ] ; from mdp
 4552  4555     1    0.108    0.108
[ constraints ] ; from mdp
 4556  4557     1    0.108    0.108
[ constraints ] ; from mdp
 4556  4558     1    0.108    0.108
[ constraints ] ; from mdp
 4556  4559     1    0.108    0.108
[ constraints ] ; from mdp
 4560  4561     1    0.108    0.108
[ constraints ] ; from mdp
 4560  4562     1    0.108    0.108
[ constraints ] ; from mdp
 4560  4563     1    0.108    0.108
[ constraints ] ; from mdp
 4564  4565     1    0.108    0.108
[ constraints ] ; from mdp
 4564  4566     1    0.108    0.108
[ bonds ]
 4564  4567     1    0.153   186188    0.153   186188
[ constraints ] ; from mdp
 4567  4568     1   0.1111   0.1111
[ constraints ] ; from mdp
 4567  4569     1   0.1111   0.1111
[ bonds ]
 4567  4574     1    0.143   284512    0.143   284512
[ bonds ]
 4570  4571     1    0.148   485344    0.148   485344
[ bonds ]
 4570  4572     1    0.148   485344    0.148   485344
[ bonds ]
 4570  4573     1     0.16   225936     0.16   225936
[ bonds ]
 4570  4574     1     0.16   225936     0.16   225936
[ bonds ]
 4573  4575     1    0.143   284512    0.143   284512
[ constraints ] ; from mdp
 4575  4576     1   0.1111   0.1111
[ constraints ] ; from mdp
 4575  4577     1   0.1111   0.1111
[ bonds ]
 4575  4578     1   0.1538   186188   0.1538   186188
[ constraints ] ; from mdp
 4578  4579     1   0.1111   0.1111
[ bonds ]
 4578  4580     1    0.143   284512    0.143   284512
[ bonds ]
 4578  4586     1   0.1538   186188   0.1538   186188
[ bonds ]
 4580  4581     1   0.1334   125520   0.1334   125520
[ bonds ]
 4581  4582     1    0.122   627600    0.122   627600
[ bonds ]
 4581  4583     1   0.1522   167360   0.1522   167360
[ constraints ] ; from mdp
 4583  4584     1   0.1111   0.1111
[ constraints ] ; from mdp
 4583  4585     1   0.1111   0.1111
[ bonds ]
 4583  4595     1    0.153   186188    0.153   186188
[ constraints ] ; from mdp
 4586  4587     1   0.1111   0.1111
[ constraints ] ; from mdp
 4586  4588     1   0.1111   0.1111
[ bonds ]
 4586  4589     1    0.143   284512    0.143   284512
[ bonds ]
 4589  4590     1   0.1334   125520   0.1334   125520
[ bonds ]
 4590  4591     1    0.122   627600    0.122   627600
[ bonds ]
 4590  4592     1   0.1522   167360   0.1522   167360
[ constraints ] ; from mdp
 4592  4593     1   0.1111   0.1111
[ constraints ] ; from mdp
 4592  4594     1   0.1111   0.1111
[ bonds ]
 4592  4638     1    0.153   186188    0.153   186188
[ constraints ] ; from mdp
 4595  4596     1   0.1111   0.1111
[ constraints ] ; from mdp
 4595  4597     1   0.1111   0.1111
[ bonds ]
 4595  4598     1    0.153   186188    0.153   186188
[ constraints ] ; from mdp
 4598  4599     1   0.1111   0.1111
[ constraints ] ; from mdp
 4598  4600     1   0.1111   0.1111
[ bonds ]
 4598  4601     1    0.153   186188    0.153   186188
[ constraints ] ; from mdp
 4601  4602     1   0.1111   0.1111
[ constraints ] ; from mdp
 4601  4603     1   0.1111   0.1111
[ bonds ]
 4601  4604     1    0.153   186188    0.153   186188
[ constraints ] ; from mdp
 4604  4605     1   0.1111   0.1111
[ constraints ] ; from mdp
 4604  4606     1   0.1111   0.1111
[ bonds ]
 4604  4607     1    0.153   186188    0.153   186188
[ constraints ] ; from mdp
 4607  4608     1   0.1111   0.1111
[ constraints ] ; from mdp
 4607  4609     1   0.1111   0.1111
[ bonds ]
 4607  4610     1    0.153   186188    0.153   186188
[ constraints ] ; from mdp
 4610  4611     1   0.1111   0.1111
[ constraints ] ; from mdp
 4610  4612     1   0.1111   0.1111
[ bonds ]
 4610  4613     1    0.153   186188    0.153   186188
[ constraints ] ; from mdp
 4613  4614     1   0.1111   0.1111
[ constraints ] ; from mdp
 4613  4615     1   0.1111   0.1111
[ bonds ]
 4613  4616     1    0.153   186188    0.153   186188
[ constraints ] ; from mdp
 4616  4617     1   0.1111   0.1111
[ constraints ] ; from mdp
 4616  4618     1   0.1111   0.1111
[ bonds ]
 4616  4619     1    0.153   186188    0.153   186188
[ constraints ] ; from mdp
 4619  4620     1   0.1111   0.1111
[ constraints ] ; from mdp
 4619  4621     1   0.1111   0.1111
[ bonds ]
 4619  4622     1    0.153   186188    0.153   186188
[ constraints ] ; from mdp
 4622  4623     1   0.1111   0.1111
[ constraints ] ; from mdp
 4622  4624     1   0.1111   0.1111
[ bonds ]
 4622  4625     1    0.153   186188    0.153   186188
[ constraints ] ; from mdp
 4625  4626     1   0.1111   0.1111
[ constraints ] ; from mdp
 4625  4627     1   0.1111   0.1111
[ bonds ]
 4625  4628     1    0.153   186188    0.153   186188
[ constraints ] ; from mdp
 4628  4629     1   0.1111   0.1111
[ constraints ] ; from mdp
 4628  4630     1   0.1111   0.1111
[ bonds ]
 4628  4631     1    0.153   186188    0.153   186188
[ constraints ] ; from mdp
 4631  4632     1   0.1111   0.1111
[ constraints ] ; from mdp
 4631  4633     1   0.1111   0.1111
[ bonds ]
 4631  4634     1   0.1528   186188   0.1528   186188
[ constraints ] ; from mdp
 4634  4635     1   0.1111   0.1111
[ constraints ] ; from mdp
 4634  4636     1   0.1111   0.1111
[ constraints ] ; from mdp
 4634  4637     1   0.1111   0.1111
[ constraints ] ; from mdp
 4638  4639     1   0.1111   0.1111
[ constraints ] ; from mdp
 4638  4640     1   0.1111   0.1111
[ bonds ]
 4638  4641     1    0.153   186188    0.153   186188
[ constraints ] ; from mdp
 4641  4642     1   0.1111   0.1111
[ constraints ] ; from mdp
 4641  4643     1   0.1111   0.1111
[ bonds ]
 4641  4644     1    0.153   186188    0.153   186188
[ constraints ] ; from mdp
 4644  4645     1   0.1111   0.1111
[ constraints ] ; from mdp
 4644  4646     1   0.1111   0.1111
[ bonds ]
 4644  4647     1    0.153   186188    0.153   186188
[ constraints ] ; from mdp
 4647  4648     1   0.1111   0.1111
[ constraints ] ; from mdp
 4647  4649     1   0.1111   0.1111
[ bonds ]
 4647  4650     1    0.153   186188    0.153   186188
[ constraints ] ; from mdp
 4650  4651     1   0.1111   0.1111
[ constraints ] ; from mdp
 4650  4652     1   0.1111   0.1111
[ bonds ]
 4650  4653     1    0.153   186188    0.153   186188
[ constraints ] ; from mdp
 4653  4654     1   0.1111   0.1111
[ constraints ] ; from mdp
 4653  4655     1   0.1111   0.1111
[ bonds ]
 4653  4656     1    0.153   186188    0.153   186188
[ constraints ] ; from mdp
 4656  4657     1   0.1111   0.1111
[ constraints ] ; from mdp
 4656  4658     1   0.1111   0.1111
[ bonds ]
 4656  4659     1    0.153   186188    0.153   186188
[ constraints ] ; from mdp
 4659  4660     1   0.1111   0.1111
[ constraints ] ; from mdp
 4659  4661     1   0.1111   0.1111
[ bonds ]
 4659  4662     1    0.153   186188    0.153   186188
[ constraints ] ; from mdp
 4662  4663     1   0.1111   0.1111
[ constraints ] ; from mdp
 4662  4664     1   0.1111   0.1111
[ bonds ]
 4662  4665     1    0.153   186188    0.153   186188
[ constraints ] ; from mdp
 4665  4666     1   0.1111   0.1111
[ constraints ] ; from mdp
 4665  4667     1   0.1111   0.1111
[ bonds ]
 4665  4668     1    0.153   186188    0.153   186188
[ constraints ] ; from mdp
 4668  4669     1   0.1111   0.1111
[ constraints ] ; from mdp
 4668  4670     1   0.1111   0.1111
[ bonds ]
 4668  4671     1    0.153   186188    0.153   186188
[ constraints ] ; from mdp
 4671  4672     1   0.1111   0.1111
[ constraints ] ; from mdp
 4671  4673     1   0.1111   0.1111
[ bonds ]
 4671  4674     1    0.153   186188    0.153   186188
[ constraints ] ; from mdp
 4674  4675     1   0.1111   0.1111
[ constraints ] ; from mdp
 4674  4676     1   0.1111   0.1111
[ bonds ]
 4674  4677     1   0.1528   186188   0.1528   186188
[ constraints ] ; from mdp
 4677  4678     1   0.1111   0.1111
[ constraints ] ; from mdp
 4677  4679     1   0.1111   0.1111
[ constraints ] ; from mdp
 4677  4680     1   0.1111   0.1111
[ bonds ]
 4681  4682     1    0.151   179912    0.151   179912
[ bonds ]
 4681  4686     1    0.151   179912    0.151   179912
[ bonds ]
 4681  4690     1    0.151   179912    0.151   179912
[ bonds ]
 4681  4694     1    0.151   179912    0.151   179912
[ constraints ] ; from mdp
 4682  4683     1    0.108    0.108
[ constraints ] ; from mdp
 4682  4684     1    0.108    0.108
[ constraints ] ; from mdp
 4682  4685     1    0.108    0.108
[ constraints ] ; from mdp
 4686  4687     1    0.108    0.108
[ constraints ] ; from mdp
 4686  4688     1    0.108    0.108
[ constraints ] ; from mdp
 4686  4689     1    0.108    0.108
[ constraints ] ; from mdp
 4690  4691     1    0.108    0.108
[ constraints ] ; from mdp
 4690  4692     1    0.108    0.108
[ constraints ] ; from mdp
 4690  4693     1    0.108    0.108
[ constraints ] ; from mdp
 4694  4695     1    0.108    0.108
[ constraints ] ; from mdp
 4694  4696     1    0.108    0.108
[ bonds ]
 4694  4697     1    0.153   186188    0.153   186188
[ constraints ] ; from mdp
 4697  4698     1   0.1111   0.1111
[ constraints ] ; from mdp
 4697  4699     1   0.1111   0.1111
[ bonds ]
 4697  4704     1    0.143   284512    0.143   284512
[ bonds ]
 4700  4701     1    0.148   485344    0.148   485344
[ bonds ]
 4700  4702     1    0.148   485344    0.148   485344
[ bonds ]
 4700  4703     1     0.16   225936     0.16   225936
[ bonds ]
 4700  4704     1     0.16   225936     0.16   225936
[ bonds ]
 4703  4705     1    0.143   284512    0.143   284512
[ constraints ] ; from mdp
 4705  4706     1   0.1111   0.1111
[ constraints ] ; from mdp
 4705  4707     1   0.1111   0.1111
[ bonds ]
 4705  4708     1   0.1538   186188   0.1538   186188
[ constraints ] ; from mdp
 4708  4709     1   0.1111   0.1111
[ bonds ]
 4708  4710     1    0.143   284512    0.143   284512
[ bonds ]
 4708  4716     1   0.1538   186188   0.1538   186188
[ bonds ]
 4710  4711     1   0.1334   125520   0.1334   125520
[ bonds ]
 4711  4712     1    0.122   627600    0.122   627600
[ bonds ]
 4711  4713     1   0.1522   167360   0.1522   167360
[ constraints ] ; from mdp
 4713  4714     1   0.1111   0.1111
[ constraints ] ; from mdp
 4713  4715     1   0.1111   0.1111
[ bonds ]
 4713  4725     1    0.153   186188    0.153   186188
[ constraints ] ; from mdp
 4716  4717     1   0.1111   0.1111
[ constraints ] ; from mdp
 4716  4718     1   0.1111   0.1111
[ bonds ]
 4716  4719     1    0.143   284512    0.143   284512
[ bonds ]
 4719  4720     1   0.1334   125520   0.1334   125520
[ bonds ]
 4720  4721     1    0.122   627600    0.122   627600
[ bonds ]
 4720  4722     1   0.1522   167360   0.1522   167360
[ constraints ] ; from mdp
 4722  4723     1   0.1111   0.1111
[ constraints ] ; from mdp
 4722  4724     1   0.1111   0.1111
[ bonds ]
 4722  4768     1    0.153   186188    0.153   186188
[ constraints ] ; from mdp
 4725  4726     1   0.1111   0.1111
[ constraints ] ; from mdp
 4725  4727     1   0.1111   0.1111
[ bonds ]
 4725  4728     1    0.153   186188    0.153   186188
[ constraints ] ; from mdp
 4728  4729     1   0.1111   0.1111
[ constraints ] ; from mdp
 4728  4730     1   0.1111   0.1111
[ bonds ]
 4728  4731     1    0.153   186188    0.153   186188
[ constraints ] ; from mdp
 4731  4732     1   0.1111   0.1111
[ constraints ] ; from mdp
 4731  4733     1   0.1111   0.1111
[ bonds ]
 4731  4734     1    0.153   186188    0.153   186188
[ constraints ] ; from mdp
 4734  4735     1   0.1111   0.1111
[ constraints ] ; from mdp
 4734  4736     1   0.1111   0.1111
[ bonds ]
 4734  4737     1    0.153   186188    0.153   186188
[ constraints ] ; from mdp
 4737  4738     1   0.1111   0.1111
[ constraints ] ; from mdp
 4737  4739     1   0.1111   0.1111
[ bonds ]
 4737  4740     1    0.153   186188    0.153   186188
[ constraints ] ; from mdp
 4740  4741     1   0.1111   0.1111
[ constraints ] ; from mdp
 4740  4742     1   0.1111   0.1111
[ bonds ]
 4740  4743     1    0.153   186188    0.153   186188
[ constraints ] ; from mdp
 4743  4744     1   0.1111   0.1111
[ constraints ] ; from mdp
 4743  4745     1   0.1111   0.1111
[ bonds ]
 4743  4746     1    0.153   186188    0.153   186188
[ constraints ] ; from mdp
 4746  4747     1   0.1111   0.1111
[ constraints ] ; from mdp
 4746  4748     1   0.1111   0.1111
[ bonds ]
 4746  4749     1    0.153   186188    0.153   186188
[ constraints ] ; from mdp
 4749  4750     1   0.1111   0.1111
[ constraints ] ; from mdp
 4749  4751     1   0.1111   0.1111
[ bonds ]
 4749  4752     1    0.153   186188    0.153   186188
[ constraints ] ; from mdp
 4752  4753     1   0.1111   0.1111
[ constraints ] ; from mdp
 4752  4754     1   0.1111   0.1111
[ bonds ]
 4752  4755     1    0.153   186188    0.153   186188
[ constraints ] ; from mdp
 4755  4756     1   0.1111   0.1111
[ constraints ] ; from mdp
 4755  4757     1   0.1111   0.1111
[ bonds ]
 4755  4758     1    0.153   186188    0.153   186188
[ constraints ] ; from mdp
 4758  4759     1   0.1111   0.1111
[ constraints ] ; from mdp
 4758  4760     1   0.1111   0.1111
[ bonds ]
 4758  4761     1    0.153   186188    0.153   186188
[ constraints ] ; from mdp
 4761  4762     1   0.1111   0.1111
[ constraints ] ; from mdp
 4761  4763     1   0.1111   0.1111
[ bonds ]
 4761  4764     1   0.1528   186188   0.1528   186188
[ constraints ] ; from mdp
 4764  4765     1   0.1111   0.1111
[ constraints ] ; from mdp
 4764  4766     1   0.1111   0.1111
[ constraints ] ; from mdp
 4764  4767     1   0.1111   0.1111
[ constraints ] ; from mdp
 4768  4769     1   0.1111   0.1111
[ constraints ] ; from mdp
 4768  4770     1   0.1111   0.1111
[ bonds ]
 4768  4771     1    0.153   186188    0.153   186188
[ constraints ] ; from mdp
 4771  4772     1   0.1111   0.1111
[ constraints ] ; from mdp
 4771  4773     1   0.1111   0.1111
[ bonds ]
 4771  4774     1    0.153   186188    0.153   186188
[ constraints ] ; from mdp
 4774  4775     1   0.1111   0.1111
[ constraints ] ; from mdp
 4774  4776     1   0.1111   0.1111
[ bonds ]
 4774  4777     1    0.153   186188    0.153   186188
[ constraints ] ; from mdp
 4777  4778     1   0.1111   0.1111
[ constraints ] ; from mdp
 4777  4779     1   0.1111   0.1111
[ bonds ]
 4777  4780     1    0.153   186188    0.153   186188
[ constraints ] ; from mdp
 4780  4781     1   0.1111   0.1111
[ constraints ] ; from mdp
 4780  4782     1   0.1111   0.1111
[ bonds ]
 4780  4783     1    0.153   186188    0.153   186188
[ constraints ] ; from mdp
 4783  4784     1   0.1111   0.1111
[ constraints ] ; from mdp
 4783  4785     1   0.1111   0.1111
[ bonds ]
 4783  4786     1    0.153   186188    0.153   186188
[ constraints ] ; from mdp
 4786  4787     1   0.1111   0.1111
[ constraints ] ; from mdp
 4786  4788     1   0.1111   0.1111
[ bonds ]
 4786  4789     1    0.153   186188    0.153   186188
[ constraints ] ; from mdp
 4789  4790     1   0.1111   0.1111
[ constraints ] ; from mdp
 4789  4791     1   0.1111   0.1111
[ bonds ]
 4789  4792     1    0.153   186188    0.153   186188
[ constraints ] ; from mdp
 4792  4793     1   0.1111   0.1111
[ constraints ] ; from mdp
 4792  4794     1   0.1111   0.1111
[ bonds ]
 4792  4795     1    0.153   186188    0.153   186188
[ constraints ] ; from mdp
 4795  4796     1   0.1111   0.1111
[ constraints ] ; from mdp
 4795  4797     1   0.1111   0.1111
[ bonds ]
 4795  4798     1    0.153   186188    0.153   186188
[ constraints ] ; from mdp
 4798  4799     1   0.1111   0.1111
[ constraints ] ; from mdp
 4798  4800     1   0.1111   0.1111
[ bonds ]
 4798  4801     1    0.153   186188    0.153   186188
[ constraints ] ; from mdp
 4801  4802     1   0.1111   0.1111
[ constraints ] ; from mdp
 4801  4803     1   0.1111   0.1111
[ bonds ]
 4801  4804     1    0.153   186188    0.153   186188
[ constraints ] ; from mdp
 4804  4805     1   0.1111   0.1111
[ constraints ] ; from mdp
 4804  4806     1   0.1111   0.1111
[ bonds ]
 4804  4807     1   0.1528   186188   0.1528   186188
[ constraints ] ; from mdp
 4807  4808     1   0.1111   0.1111
[ constraints ] ; from mdp
 4807  4809     1   0.1111   0.1111
[ constraints ] ; from mdp
 4807  4810     1   0.1111   0.1111
[ bonds ]
 4811  4812     1    0.151   179912    0.151   179912
[ bonds ]
 4811  4816     1    0.151   179912    0.151   179912
[ bonds ]
 4811  4820     1    0.151   179912    0.151   179912
[ bonds ]
 4811  4824     1    0.151   179912    0.151   179912
[ constraints ] ; from mdp
 4812  4813     1    0.108    0.108
[ constraints ] ; from mdp
 4812  4814     1    0.108    0.108
[ constraints ] ; from mdp
 4812  4815     1    0.108    0.108
[ constraints ] ; from mdp
 4816  4817     1    0.108    0.108
[ constraints ] ; from mdp
 4816  4818     1    0.108    0.108
[ constraints ] ; from mdp
 4816  4819     1    0.108    0.108
[ constraints ] ; from mdp
 4820  4821     1    0.108    0.108
[ constraints ] ; from mdp
 4820  4822     1    0.108    0.108
[ constraints ] ; from mdp
 4820  4823     1    0.108    0.108
[ constraints ] ; from mdp
 4824  4825     1    0.108    0.108
[ constraints ] ; from mdp
 4824  4826     1    0.108    0.108
[ bonds ]
 4824  4827     1    0.153   186188    0.153   186188
[ constraints ] ; from mdp
 4827  4828     1   0.1111   0.1111
[ constraints ] ; from mdp
 4827  4829     1   0.1111   0.1111
[ bonds ]
 4827  4834     1    0.143   284512    0.143   284512
[ bonds ]
 4830  4831     1    0.148   485344    0.148   485344
[ bonds ]
 4830  4832     1    0.148   485344    0.148   485344
[ bonds ]
 4830  4833     1     0.16   225936     0.16   225936
[ bonds ]
 4830  4834     1     0.16   225936     0.16   225936
[ bonds ]
 4833  4835     1    0.143   284512    0.143   284512
[ constraints ] ; from mdp
 4835  4836     1   0.1111   0.1111
[ constraints ] ; from mdp
 4835  4837     1   0.1111   0.1111
[ bonds ]
 4835  4838     1   0.1538   186188   0.1538   186188
[ constraints ] ; from mdp
 4838  4839     1   0.1111   0.1111
[ bonds ]
 4838  4840     1    0.143   284512    0.143   284512
[ bonds ]
 4838  4846     1   0.1538   186188   0.1538   186188
[ bonds ]
 4840  4841     1   0.1334   125520   0.1334   125520
[ bonds ]
 4841  4842     1    0.122   627600    0.122   627600
[ bonds ]
 4841  4843     1   0.1522   167360   0.1522   167360
[ constraints ] ; from mdp
 4843  4844     1   0.1111   0.1111
[ constraints ] ; from mdp
 4843  4845     1   0.1111   0.1111
[ bonds ]
 4843  4855     1    0.153   186188    0.153   186188
[ constraints ] ; from mdp
 4846  4847     1   0.1111   0.1111
[ constraints ] ; from mdp
 4846  4848     1   0.1111   0.1111
[ bonds ]
 4846  4849     1    0.143   284512    0.143   284512
[ bonds ]
 4849  4850     1   0.1334   125520   0.1334   125520
[ bonds ]
 4850  4851     1    0.122   627600    0.122   627600
[ bonds ]
 4850  4852     1   0.1522   167360   0.1522   167360
[ constraints ] ; from mdp
 4852  4853     1   0.1111   0.1111
[ constraints ] ; from mdp
 4852  4854     1   0.1111   0.1111
[ bonds ]
 4852  4898     1    0.153   186188    0.153   186188
[ constraints ] ; from mdp
 4855  4856     1   0.1111   0.1111
[ constraints ] ; from mdp
 4855  4857     1   0.1111   0.1111
[ bonds ]
 4855  4858     1    0.153   186188    0.153   186188
[ constraints ] ; from mdp
 4858  4859     1   0.1111   0.1111
[ constraints ] ; from mdp
 4858  4860     1   0.1111   0.1111
[ bonds ]
 4858  4861     1    0.153   186188    0.153   186188
[ constraints ] ; from mdp
 4861  4862     1   0.1111   0.1111
[ constraints ] ; from mdp
 4861  4863     1   0.1111   0.1111
[ bonds ]
 4861  4864     1    0.153   186188    0.153   186188
[ constraints ] ; from mdp
 4864  4865     1   0.1111   0.1111
[ constraints ] ; from mdp
 4864  4866     1   0.1111   0.1111
[ bonds ]
 4864  4867     1    0.153   186188    0.153   186188
[ constraints ] ; from mdp
 4867  4868     1   0.1111   0.1111
[ constraints ] ; from mdp
 4867  4869     1   0.1111   0.1111
[ bonds ]
 4867  4870     1    0.153   186188    0.153   186188
[ constraints ] ; from mdp
 4870  4871     1   0.1111   0.1111
[ constraints ] ; from mdp
 4870  4872     1   0.1111   0.1111
[ bonds ]
 4870  4873     1    0.153   186188    0.153   186188
[ constraints ] ; from mdp
 4873  4874     1   0.1111   0.1111
[ constraints ] ; from mdp
 4873  4875     1   0.1111   0.1111
[ bonds ]
 4873  4876     1    0.153   186188    0.153   186188
[ constraints ] ; from mdp
 4876  4877     1   0.1111   0.1111
[ constraints ] ; from mdp
 4876  4878     1   0.1111   0.1111
[ bonds ]
 4876  4879     1    0.153   186188    0.153   186188
[ constraints ] ; from mdp
 4879  4880     1   0.1111   0.1111
[ constraints ] ; from mdp
 4879  4881     1   0.1111   0.1111
[ bonds ]
 4879  4882     1    0.153   186188    0.153   186188
[ constraints ] ; from mdp
 4882  4883     1   0.1111   0.1111
[ constraints ] ; from mdp
 4882  4884     1   0.1111   0.1111
[ bonds ]
 4882  4885     1    0.153   186188    0.153   186188
[ constraints ] ; from mdp
 4885  4886     1   0.1111   0.1111
[ constraints ] ; from mdp
 4885  4887     1   0.1111   0.1111
[ bonds ]
 4885  4888     1    0.153   186188    0.153   186188
[ constraints ] ; from mdp
 4888  4889     1   0.1111   0.1111
[ constraints ] ; from mdp
 4888  4890     1   0.1111   0.1111
[ bonds ]
 4888  4891     1    0.153   186188    0.153   186188
[ constraints ] ; from mdp
 4891  4892     1   0.1111   0.1111
[ constraints ] ; from mdp
 4891  4893     1   0.1111   0.1111
[ bonds ]
 4891  4894     1   0.1528   186188   0.1528   186188
[ constraints ] ; from mdp
 4894  4895     1   0.1111   0.1111
[ constraints ] ; from mdp
 4894  4896     1   0.1111   0.1111
[ constraints ] ; from mdp
 4894  4897     1   0.1111   0.1111
[ constraints ] ; from mdp
 4898  4899     1   0.1111   0.1111
[ constraints ] ; from mdp
 4898  4900     1   0.1111   0.1111
[ bonds ]
 4898  4901     1    0.153   186188    0.153   186188
[ constraints ] ; from mdp
 4901  4902     1   0.1111   0.1111
[ constraints ] ; from mdp
 4901  4903     1   0.1111   0.1111
[ bonds ]
 4901  4904     1    0.153   186188    0.153   186188
[ constraints ] ; from mdp
 4904  4905     1   0.1111   0.1111
[ constraints ] ; from mdp
 4904  4906     1   0.1111   0.1111
[ bonds ]
 4904  4907     1    0.153   186188    0.153   186188
[ constraints ] ; from mdp
 4907  4908     1   0.1111   0.1111
[ constraints ] ; from mdp
 4907  4909     1   0.1111   0.1111
[ bonds ]
 4907  4910     1    0.153   186188    0.153   186188
[ constraints ] ; from mdp
 4910  4911     1   0.1111   0.1111
[ constraints ] ; from mdp
 4910  4912     1   0.1111   0.1111
[ bonds ]
 4910  4913     1    0.153   186188    0.153   186188
[ constraints ] ; from mdp
 4913  4914     1   0.1111   0.1111
[ constraints ] ; from mdp
 4913  4915     1   0.1111   0.1111
[ bonds ]
 4913  4916     1    0.153   186188    0.153   186188
[ constraints ] ; from mdp
 4916  4917     1   0.1111   0.1111
[ constraints ] ; from mdp
 4916  4918     1   0.1111   0.1111
[ bonds ]
 4916  4919     1    0.153   186188    0.153   186188
[ constraints ] ; from mdp
 4919  4920     1   0.1111   0.1111
[ constraints ] ; from mdp
 4919  4921     1   0.1111   0.1111
[ bonds ]
 4919  4922     1    0.153   186188    0.153   186188
[ constraints ] ; from mdp
 4922  4923     1   0.1111   0.1111
[ constraints ] ; from mdp
 4922  4924     1   0.1111   0.1111
[ bonds ]
 4922  4925     1    0.153   186188    0.153   186188
[ constraints ] ; from mdp
 4925  4926     1   0.1111   0.1111
[ constraints ] ; from mdp
 4925  4927     1   0.1111   0.1111
[ bonds ]
 4925  4928     1    0.153   186188    0.153   186188
[ constraints ] ; from mdp
 4928  4929     1   0.1111   0.1111
[ constraints ] ; from mdp
 4928  4930     1   0.1111   0.1111
[ bonds ]
 4928  4931     1    0.153   186188    0.153   186188
[ constraints ] ; from mdp
 4931  4932     1   0.1111   0.1111
[ constraints ] ; from mdp
 4931  4933     1   0.1111   0.1111
[ bonds ]
 4931  4934     1    0.153   186188    0.153   186188
[ constraints ] ; from mdp
 4934  4935     1   0.1111   0.1111
[ constraints ] ; from mdp
 4934  4936     1   0.1111   0.1111
[ bonds ]
 4934  4937     1   0.1528   186188   0.1528   186188
[ constraints ] ; from mdp
 4937  4938     1   0.1111   0.1111
[ constraints ] ; from mdp
 4937  4939     1   0.1111   0.1111
[ constraints ] ; from mdp
 4937  4940     1   0.1111   0.1111
[ bonds ]
 4941  4942     1    0.151   179912    0.151   179912
[ bonds ]
 4941  4946     1    0.151   179912    0.151   179912
[ bonds ]
 4941  4950     1    0.151   179912    0.151   179912
[ bonds ]
 4941  4954     1    0.151   179912    0.151   179912
[ constraints ] ; from mdp
 4942  4943     1    0.108    0.108
[ constraints ] ; from mdp
 4942  4944     1    0.108    0.108
[ constraints ] ; from mdp
 4942  4945     1    0.108    0.108
[ constraints ] ; from mdp
 4946  4947     1    0.108    0.108
[ constraints ] ; from mdp
 4946  4948     1    0.108    0.108
[ constraints ] ; from mdp
 4946  4949     1    0.108    0.108
[ constraints ] ; from mdp
 4950  4951     1    0.108    0.108
[ constraints ] ; from mdp
 4950  4952     1    0.108    0.108
[ constraints ] ; from mdp
 4950  4953     1    0.108    0.108
[ constraints ] ; from mdp
 4954  4955     1    0.108    0.108
[ constraints ] ; from mdp
 4954  4956     1    0.108    0.108
[ bonds ]
 4954  4957     1    0.153   186188    0.153   186188
[ constraints ] ; from mdp
 4957  4958     1   0.1111   0.1111
[ constraints ] ; from mdp
 4957  4959     1   0.1111   0.1111
[ bonds ]
 4957  4964     1    0.143   284512    0.143   284512
[ bonds ]
 4960  4961     1    0.148   485344    0.148   485344
[ bonds ]
 4960  4962     1    0.148   485344    0.148   485344
[ bonds ]
 4960  4963     1     0.16   225936     0.16   225936
[ bonds ]
 4960  4964     1     0.16   225936     0.16   225936
[ bonds ]
 4963  4965     1    0.143   284512    0.143   284512
[ constraints ] ; from mdp
 4965  4966     1   0.1111   0.1111
[ constraints ] ; from mdp
 4965  4967     1   0.1111   0.1111
[ bonds ]
 4965  4968     1   0.1538   186188   0.1538   186188
[ constraints ] ; from mdp
 4968  4969     1   0.1111   0.1111
[ bonds ]
 4968  4970     1    0.143   284512    0.143   284512
[ bonds ]
 4968  4976     1   0.1538   186188   0.1538   186188
[ bonds ]
 4970  4971     1   0.1334   125520   0.1334   125520
[ bonds ]
 4971  4972     1    0.122   627600    0.122   627600
[ bonds ]
 4971  4973     1   0.1522   167360   0.1522   167360
[ constraints ] ; from mdp
 4973  4974     1   0.1111   0.1111
[ constraints ] ; from mdp
 4973  4975     1   0.1111   0.1111
[ bonds ]
 4973  4985     1    0.153   186188    0.153   186188
[ constraints ] ; from mdp
 4976  4977     1   0.1111   0.1111
[ constraints ] ; from mdp
 4976  4978     1   0.1111   0.1111
[ bonds ]
 4976  4979     1    0.143   284512    0.143   284512
[ bonds ]
 4979  4980     1   0.1334   125520   0.1334   125520
[ bonds ]
 4980  4981     1    0.122   627600    0.122   627600
[ bonds ]
 4980  4982     1   0.1522   167360   0.1522   167360
[ constraints ] ; from mdp
 4982  4983     1   0.1111   0.1111
[ constraints ] ; from mdp
 4982  4984     1   0.1111   0.1111
[ bonds ]
 4982  5028     1    0.153   186188    0.153   186188
[ constraints ] ; from mdp
 4985  4986     1   0.1111   0.1111
[ constraints ] ; from mdp
 4985  4987     1   0.1111   0.1111
[ bonds ]
 4985  4988     1    0.153   186188    0.153   186188
[ constraints ] ; from mdp
 4988  4989     1   0.1111   0.1111
[ constraints ] ; from mdp
 4988  4990     1   0.1111   0.1111
[ bonds ]
 4988  4991     1    0.153   186188    0.153   186188
[ constraints ] ; from mdp
 4991  4992     1   0.1111   0.1111
[ constraints ] ; from mdp
 4991  4993     1   0.1111   0.1111
[ bonds ]
 4991  4994     1    0.153   186188    0.153   186188
[ constraints ] ; from mdp
 4994  4995     1   0.1111   0.1111
[ constraints ] ; from mdp
 4994  4996     1   0.1111   0.1111
[ bonds ]
 4994  4997     1    0.153   186188    0.153   186188
[ constraints ] ; from mdp
 4997  4998     1   0.1111   0.1111
[ constraints ] ; from mdp
 4997  4999     1   0.1111   0.1111
[ bonds ]
 4997  5000     1    0.153   186188    0.153   186188
[ constraints ] ; from mdp
 5000  5001     1   0.1111   0.1111
[ constraints ] ; from mdp
 5000  5002     1   0.1111   0.1111
[ bonds ]
 5000  5003     1    0.153   186188    0.153   186188
[ constraints ] ; from mdp
 5003  5004     1   0.1111   0.1111
[ constraints ] ; from mdp
 5003  5005     1   0.1111   0.1111
[ bonds ]
 5003  5006     1    0.153   186188    0.153   186188
[ constraints ] ; from mdp
 5006  5007     1   0.1111   0.1111
[ constraints ] ; from mdp
 5006  5008     1   0.1111   0.1111
[ bonds ]
 5006  5009     1    0.153   186188    0.153   186188
[ constraints ] ; from mdp
 5009  5010     1   0.1111   0.1111
[ constraints ] ; from mdp
 5009  5011     1   0.1111   0.1111
[ bonds ]
 5009  5012     1    0.153   186188    0.153   186188
[ constraints ] ; from mdp
 5012  5013     1   0.1111   0.1111
[ constraints ] ; from mdp
 5012  5014     1   0.1111   0.1111
[ bonds ]
 5012  5015     1    0.153   186188    0.153   186188
[ constraints ] ; from mdp
 5015  5016     1   0.1111   0.1111
[ constraints ] ; from mdp
 5015  5017     1   0.1111   0.1111
[ bonds ]
 5015  5018     1    0.153   186188    0.153   186188
[ constraints ] ; from mdp
 5018  5019     1   0.1111   0.1111
[ constraints ] ; from mdp
 5018  5020     1   0.1111   0.1111
[ bonds ]
 5018  5021     1    0.153   186188    0.153   186188
[ constraints ] ; from mdp
 5021  5022     1   0.1111   0.1111
[ constraints ] ; from mdp
 5021  5023     1   0.1111   0.1111
[ bonds ]
 5021  5024     1   0.1528   186188   0.1528   186188
[ constraints ] ; from mdp
 5024  5025     1   0.1111   0.1111
[ constraints ] ; from mdp
 5024  5026     1   0.1111   0.1111
[ constraints ] ; from mdp
 5024  5027     1   0.1111   0.1111
[ constraints ] ; from mdp
 5028  5029     1   0.1111   0.1111
[ constraints ] ; from mdp
 5028  5030     1   0.1111   0.1111
[ bonds ]
 5028  5031     1    0.153   186188    0.153   186188
[ constraints ] ; from mdp
 5031  5032     1   0.1111   0.1111
[ constraints ] ; from mdp
 5031  5033     1   0.1111   0.1111
[ bonds ]
 5031  5034     1    0.153   186188    0.153   186188
[ constraints ] ; from mdp
 5034  5035     1   0.1111   0.1111
[ constraints ] ; from mdp
 5034  5036     1   0.1111   0.1111
[ bonds ]
 5034  5037     1    0.153   186188    0.153   186188
[ constraints ] ; from mdp
 5037  5038     1   0.1111   0.1111
[ constraints ] ; from mdp
 5037  5039     1   0.1111   0.1111
[ bonds ]
 5037  5040     1    0.153   186188    0.153   186188
[ constraints ] ; from mdp
 5040  5041     1   0.1111   0.1111
[ constraints ] ; from mdp
 5040  5042     1   0.1111   0.1111
[ bonds ]
 5040  5043     1    0.153   186188    0.153   186188
[ constraints ] ; from mdp
 5043  5044     1   0.1111   0.1111
[ constraints ] ; from mdp
 5043  5045     1   0.1111   0.1111
[ bonds ]
 5043  5046     1    0.153   186188    0.153   186188
[ constraints ] ; from mdp
 5046  5047     1   0.1111   0.1111
[ constraints ] ; from mdp
 5046  5048     1   0.1111   0.1111
[ bonds ]
 5046  5049     1    0.153   186188    0.153   186188
[ constraints ] ; from mdp
 5049  5050     1   0.1111   0.1111
[ constraints ] ; from mdp
 5049  5051     1   0.1111   0.1111
[ bonds ]
 5049  5052     1    0.153   186188    0.153   186188
[ constraints ] ; from mdp
 5052  5053     1   0.1111   0.1111
[ constraints ] ; from mdp
 5052  5054     1   0.1111   0.1111
[ bonds ]
 5052  5055     1    0.153   186188    0.153   186188
[ constraints ] ; from mdp
 5055  5056     1   0.1111   0.1111
[ constraints ] ; from mdp
 5055  5057     1   0.1111   0.1111
[ bonds ]
 5055  5058     1    0.153   186188    0.153   186188
[ constraints ] ; from mdp
 5058  5059     1   0.1111   0.1111
[ constraints ] ; from mdp
 5058  5060     1   0.1111   0.1111
[ bonds ]
 5058  5061     1    0.153   186188    0.153   186188
[ constraints ] ; from mdp
 5061  5062     1   0.1111   0.1111
[ constraints ] ; from mdp
 5061  5063     1   0.1111   0.1111
[ bonds ]
 5061  5064     1    0.153   186188    0.153   186188
[ constraints ] ; from mdp
 5064  5065     1   0.1111   0.1111
[ constraints ] ; from mdp
 5064  5066     1   0.1111   0.1111
[ bonds ]
 5064  5067     1   0.1528   186188   0.1528   186188
[ constraints ] ; from mdp
 5067  5068     1   0.1111   0.1111
[ constraints ] ; from mdp
 5067  5069     1   0.1111   0.1111
[ constraints ] ; from mdp
 5067  5070     1   0.1111   0.1111
[ bonds ]
 5071  5072     1    0.151   179912    0.151   179912
[ bonds ]
 5071  5076     1    0.151   179912    0.151   179912
[ bonds ]
 5071  5080     1    0.151   179912    0.151   179912
[ bonds ]
 5071  5084     1    0.151   179912    0.151   179912
[ constraints ] ; from mdp
 5072  5073     1    0.108    0.108
[ constraints ] ; from mdp
 5072  5074     1    0.108    0.108
[ constraints ] ; from mdp
 5072  5075     1    0.108    0.108
[ constraints ] ; from mdp
 5076  5077     1    0.108    0.108
[ constraints ] ; from mdp
 5076  5078     1    0.108    0.108
[ constraints ] ; from mdp
 5076  5079     1    0.108    0.108
[ constraints ] ; from mdp
 5080  5081     1    0.108    0.108
[ constraints ] ; from mdp
 5080  5082     1    0.108    0.108
[ constraints ] ; from mdp
 5080  5083     1    0.108    0.108
[ constraints ] ; from mdp
 5084  5085     1    0.108    0.108
[ constraints ] ; from mdp
 5084  5086     1    0.108    0.108
[ bonds ]
 5084  5087     1    0.153   186188    0.153   186188
[ constraints ] ; from mdp
 5087  5088     1   0.1111   0.1111
[ constraints ] ; from mdp
 5087  5089     1   0.1111   0.1111
[ bonds ]
 5087  5094     1    0.143   284512    0.143   284512
[ bonds ]
 5090  5091     1    0.148   485344    0.148   485344
[ bonds ]
 5090  5092     1    0.148   485344    0.148   485344
[ bonds ]
 5090  5093     1     0.16   225936     0.16   225936
[ bonds ]
 5090  5094     1     0.16   225936     0.16   225936
[ bonds ]
 5093  5095     1    0.143   284512    0.143   284512
[ constraints ] ; from mdp
 5095  5096     1   0.1111   0.1111
[ constraints ] ; from mdp
 5095  5097     1   0.1111   0.1111
[ bonds ]
 5095  5098     1   0.1538   186188   0.1538   186188
[ constraints ] ; from mdp
 5098  5099     1   0.1111   0.1111
[ bonds ]
 5098  5100     1    0.143   284512    0.143   284512
[ bonds ]
 5098  5106     1   0.1538   186188   0.1538   186188
[ bonds ]
 5100  5101     1   0.1334   125520   0.1334   125520
[ bonds ]
 5101  5102     1    0.122   627600    0.122   627600
[ bonds ]
 5101  5103     1   0.1522   167360   0.1522   167360
[ constraints ] ; from mdp
 5103  5104     1   0.1111   0.1111
[ constraints ] ; from mdp
 5103  5105     1   0.1111   0.1111
[ bonds ]
 5103  5115     1    0.153   186188    0.153   186188
[ constraints ] ; from mdp
 5106  5107     1   0.1111   0.1111
[ constraints ] ; from mdp
 5106  5108     1   0.1111   0.1111
[ bonds ]
 5106  5109     1    0.143   284512    0.143   284512
[ bonds ]
 5109  5110     1   0.1334   125520   0.1334   125520
[ bonds ]
 5110  5111     1    0.122   627600    0.122   627600
[ bonds ]
 5110  5112     1   0.1522   167360   0.1522   167360
[ constraints ] ; from mdp
 5112  5113     1   0.1111   0.1111
[ constraints ] ; from mdp
 5112  5114     1   0.1111   0.1111
[ bonds ]
 5112  5158     1    0.153   186188    0.153   186188
[ constraints ] ; from mdp
 5115  5116     1   0.1111   0.1111
[ constraints ] ; from mdp
 5115  5117     1   0.1111   0.1111
[ bonds ]
 5115  5118     1    0.153   186188    0.153   186188
[ constraints ] ; from mdp
 5118  5119     1   0.1111   0.1111
[ constraints ] ; from mdp
 5118  5120     1   0.1111   0.1111
[ bonds ]
 5118  5121     1    0.153   186188    0.153   186188
[ constraints ] ; from mdp
 5121  5122     1   0.1111   0.1111
[ constraints ] ; from mdp
 5121  5123     1   0.1111   0.1111
[ bonds ]
 5121  5124     1    0.153   186188    0.153   186188
[ constraints ] ; from mdp
 5124  5125     1   0.1111   0.1111
[ constraints ] ; from mdp
 5124  5126     1   0.1111   0.1111
[ bonds ]
 5124  5127     1    0.153   186188    0.153   186188
[ constraints ] ; from mdp
 5127  5128     1   0.1111   0.1111
[ constraints ] ; from mdp
 5127  5129     1   0.1111   0.1111
[ bonds ]
 5127  5130     1    0.153   186188    0.153   186188
[ constraints ] ; from mdp
 5130  5131     1   0.1111   0.1111
[ constraints ] ; from mdp
 5130  5132     1   0.1111   0.1111
[ bonds ]
 5130  5133     1    0.153   186188    0.153   186188
[ constraints ] ; from mdp
 5133  5134     1   0.1111   0.1111
[ constraints ] ; from mdp
 5133  5135     1   0.1111   0.1111
[ bonds ]
 5133  5136     1    0.153   186188    0.153   186188
[ constraints ] ; from mdp
 5136  5137     1   0.1111   0.1111
[ constraints ] ; from mdp
 5136  5138     1   0.1111   0.1111
[ bonds ]
 5136  5139     1    0.153   186188    0.153   186188
[ constraints ] ; from mdp
 5139  5140     1   0.1111   0.1111
[ constraints ] ; from mdp
 5139  5141     1   0.1111   0.1111
[ bonds ]
 5139  5142     1    0.153   186188    0.153   186188
[ constraints ] ; from mdp
 5142  5143     1   0.1111   0.1111
[ constraints ] ; from mdp
 5142  5144     1   0.1111   0.1111
[ bonds ]
 5142  5145     1    0.153   186188    0.153   186188
[ constraints ] ; from mdp
 5145  5146     1   0.1111   0.1111
[ constraints ] ; from mdp
 5145  5147     1   0.1111   0.1111
[ bonds ]
 5145  5148     1    0.153   186188    0.153   186188
[ constraints ] ; from mdp
 5148  5149     1   0.1111   0.1111
[ constraints ] ; from mdp
 5148  5150     1   0.1111   0.1111
[ bonds ]
 5148  5151     1    0.153   186188    0.153   186188
[ constraints ] ; from mdp
 5151  5152     1   0.1111   0.1111
[ constraints ] ; from mdp
 5151  5153     1   0.1111   0.1111
[ bonds ]
 5151  5154     1   0.1528   186188   0.1528   186188
[ constraints ] ; from mdp
 5154  5155     1   0.1111   0.1111
[ constraints ] ; from mdp
 5154  5156     1   0.1111   0.1111
[ constraints ] ; from mdp
 5154  5157     1   0.1111   0.1111
[ constraints ] ; from mdp
 5158  5159     1   0.1111   0.1111
[ constraints ] ; from mdp
 5158  5160     1   0.1111   0.1111
[ bonds ]
 5158  5161     1    0.153   186188    0.153   186188
[ constraints ] ; from mdp
 5161  5162     1   0.1111   0.1111
[ constraints ] ; from mdp
 5161  5163     1   0.1111   0.1111
[ bonds ]
 5161  5164     1    0.153   186188    0.153   186188
[ constraints ] ; from mdp
 5164  5165     1   0.1111   0.1111
[ constraints ] ; from mdp
 5164  5166     1   0.1111   0.1111
[ bonds ]
 5164  5167     1    0.153   186188    0.153   186188
[ constraints ] ; from mdp
 5167  5168     1   0.1111   0.1111
[ constraints ] ; from mdp
 5167  5169     1   0.1111   0.1111
[ bonds ]
 5167  5170     1    0.153   186188    0.153   186188
[ constraints ] ; from mdp
 5170  5171     1   0.1111   0.1111
[ constraints ] ; from mdp
 5170  5172     1   0.1111   0.1111
[ bonds ]
 5170  5173     1    0.153   186188    0.153   186188
[ constraints ] ; from mdp
 5173  5174     1   0.1111   0.1111
[ constraints ] ; from mdp
 5173  5175     1   0.1111   0.1111
[ bonds ]
 5173  5176     1    0.153   186188    0.153   186188
[ constraints ] ; from mdp
 5176  5177     1   0.1111   0.1111
[ constraints ] ; from mdp
 5176  5178     1   0.1111   0.1111
[ bonds ]
 5176  5179     1    0.153   186188    0.153   186188
[ constraints ] ; from mdp
 5179  5180     1   0.1111   0.1111
[ constraints ] ; from mdp
 5179  5181     1   0.1111   0.1111
[ bonds ]
 5179  5182     1    0.153   186188    0.153   186188
[ constraints ] ; from mdp
 5182  5183     1   0.1111   0.1111
[ constraints ] ; from mdp
 5182  5184     1   0.1111   0.1111
[ bonds ]
 5182  5185     1    0.153   186188    0.153   186188
[ constraints ] ; from mdp
 5185  5186     1   0.1111   0.1111
[ constraints ] ; from mdp
 5185  5187     1   0.1111   0.1111
[ bonds ]
 5185  5188     1    0.153   186188    0.153   186188
[ constraints ] ; from mdp
 5188  5189     1   0.1111   0.1111
[ constraints ] ; from mdp
 5188  5190     1   0.1111   0.1111
[ bonds ]
 5188  5191     1    0.153   186188    0.153   186188
[ constraints ] ; from mdp
 5191  5192     1   0.1111   0.1111
[ constraints ] ; from mdp
 5191  5193     1   0.1111   0.1111
[ bonds ]
 5191  5194     1    0.153   186188    0.153   186188
[ constraints ] ; from mdp
 5194  5195     1   0.1111   0.1111
[ constraints ] ; from mdp
 5194  5196     1   0.1111   0.1111
[ bonds ]
 5194  5197     1   0.1528   186188   0.1528   186188
[ constraints ] ; from mdp
 5197  5198     1   0.1111   0.1111
[ constraints ] ; from mdp
 5197  5199     1   0.1111   0.1111
[ constraints ] ; from mdp
 5197  5200     1   0.1111   0.1111
[ bonds ]
 5201  5202     1    0.151   179912    0.151   179912
[ bonds ]
 5201  5206     1    0.151   179912    0.151   179912
[ bonds ]
 5201  5210     1    0.151   179912    0.151   179912
[ bonds ]
 5201  5214     1    0.151   179912    0.151   179912
[ constraints ] ; from mdp
 5202  5203     1    0.108    0.108
[ constraints ] ; from mdp
 5202  5204     1    0.108    0.108
[ constraints ] ; from mdp
 5202  5205     1    0.108    0.108
[ constraints ] ; from mdp
 5206  5207     1    0.108    0.108
[ constraints ] ; from mdp
 5206  5208     1    0.108    0.108
[ constraints ] ; from mdp
 5206  5209     1    0.108    0.108
[ constraints ] ; from mdp
 5210  5211     1    0.108    0.108
[ constraints ] ; from mdp
 5210  5212     1    0.108    0.108
[ constraints ] ; from mdp
 5210  5213     1    0.108    0.108
[ constraints ] ; from mdp
 5214  5215     1    0.108    0.108
[ constraints ] ; from mdp
 5214  5216     1    0.108    0.108
[ bonds ]
 5214  5217     1    0.153   186188    0.153   186188
[ constraints ] ; from mdp
 5217  5218     1   0.1111   0.1111
[ constraints ] ; from mdp
 5217  5219     1   0.1111   0.1111
[ bonds ]
 5217  5224     1    0.143   284512    0.143   284512
[ bonds ]
 5220  5221     1    0.148   485344    0.148   485344
[ bonds ]
 5220  5222     1    0.148   485344    0.148   485344
[ bonds ]
 5220  5223     1     0.16   225936     0.16   225936
[ bonds ]
 5220  5224     1     0.16   225936     0.16   225936
[ bonds ]
 5223  5225     1    0.143   284512    0.143   284512
[ constraints ] ; from mdp
 5225  5226     1   0.1111   0.1111
[ constraints ] ; from mdp
 5225  5227     1   0.1111   0.1111
[ bonds ]
 5225  5228     1   0.1538   186188   0.1538   186188
[ constraints ] ; from mdp
 5228  5229     1   0.1111   0.1111
[ bonds ]
 5228  5230     1    0.143   284512    0.143   284512
[ bonds ]
 5228  5236     1   0.1538   186188   0.1538   186188
[ bonds ]
 5230  5231     1   0.1334   125520   0.1334   125520
[ bonds ]
 5231  5232     1    0.122   627600    0.122   627600
[ bonds ]
 5231  5233     1   0.1522   167360   0.1522   167360
[ constraints ] ; from mdp
 5233  5234     1   0.1111   0.1111
[ constraints ] ; from mdp
 5233  5235     1   0.1111   0.1111
[ bonds ]
 5233  5245     1    0.153   186188    0.153   186188
[ constraints ] ; from mdp
 5236  5237     1   0.1111   0.1111
[ constraints ] ; from mdp
 5236  5238     1   0.1111   0.1111
[ bonds ]
 5236  5239     1    0.143   284512    0.143   284512
[ bonds ]
 5239  5240     1   0.1334   125520   0.1334   125520
[ bonds ]
 5240  5241     1    0.122   627600    0.122   627600
[ bonds ]
 5240  5242     1   0.1522   167360   0.1522   167360
[ constraints ] ; from mdp
 5242  5243     1   0.1111   0.1111
[ constraints ] ; from mdp
 5242  5244     1   0.1111   0.1111
[ bonds ]
 5242  5288     1    0.153   186188    0.153   186188
[ constraints ] ; from mdp
 5245  5246     1   0.1111   0.1111
[ constraints ] ; from mdp
 5245  5247     1   0.1111   0.1111
[ bonds ]
 5245  5248     1    0.153   186188    0.153   186188
[ constraints ] ; from mdp
 5248  5249     1   0.1111   0.1111
[ constraints ] ; from mdp
 5248  5250     1   0.1111   0.1111
[ bonds ]
 5248  5251     1    0.153   186188    0.153   186188
[ constraints ] ; from mdp
 5251  5252     1   0.1111   0.1111
[ constraints ] ; from mdp
 5251  5253     1   0.1111   0.1111
[ bonds ]
 5251  5254     1    0.153   186188    0.153   186188
[ constraints ] ; from mdp
 5254  5255     1   0.1111   0.1111
[ constraints ] ; from mdp
 5254  5256     1   0.1111   0.1111
[ bonds ]
 5254  5257     1    0.153   186188    0.153   186188
[ constraints ] ; from mdp
 5257  5258     1   0.1111   0.1111
[ constraints ] ; from mdp
 5257  5259     1   0.1111   0.1111
[ bonds ]
 5257  5260     1    0.153   186188    0.153   186188
[ constraints ] ; from mdp
 5260  5261     1   0.1111   0.1111
[ constraints ] ; from mdp
 5260  5262     1   0.1111   0.1111
[ bonds ]
 5260  5263     1    0.153   186188    0.153   186188
[ constraints ] ; from mdp
 5263  5264     1   0.1111   0.1111
[ constraints ] ; from mdp
 5263  5265     1   0.1111   0.1111
[ bonds ]
 5263  5266     1    0.153   186188    0.153   186188
[ constraints ] ; from mdp
 5266  5267     1   0.1111   0.1111
[ constraints ] ; from mdp
 5266  5268     1   0.1111   0.1111
[ bonds ]
 5266  5269     1    0.153   186188    0.153   186188
[ constraints ] ; from mdp
 5269  5270     1   0.1111   0.1111
[ constraints ] ; from mdp
 5269  5271     1   0.1111   0.1111
[ bonds ]
 5269  5272     1    0.153   186188    0.153   186188
[ constraints ] ; from mdp
 5272  5273     1   0.1111   0.1111
[ constraints ] ; from mdp
 5272  5274     1   0.1111   0.1111
[ bonds ]
 5272  5275     1    0.153   186188    0.153   186188
[ constraints ] ; from mdp
 5275  5276     1   0.1111   0.1111
[ constraints ] ; from mdp
 5275  5277     1   0.1111   0.1111
[ bonds ]
 5275  5278     1    0.153   186188    0.153   186188
[ constraints ] ; from mdp
 5278  5279     1   0.1111   0.1111
[ constraints ] ; from mdp
 5278  5280     1   0.1111   0.1111
[ bonds ]
 5278  5281     1    0.153   186188    0.153   186188
[ constraints ] ; from mdp
 5281  5282     1   0.1111   0.1111
[ constraints ] ; from mdp
 5281  5283     1   0.1111   0.1111
[ bonds ]
 5281  5284     1   0.1528   186188   0.1528   186188
[ constraints ] ; from mdp
 5284  5285     1   0.1111   0.1111
[ constraints ] ; from mdp
 5284  5286     1   0.1111   0.1111
[ constraints ] ; from mdp
 5284  5287     1   0.1111   0.1111
[ constraints ] ; from mdp
 5288  5289     1   0.1111   0.1111
[ constraints ] ; from mdp
 5288  5290     1   0.1111   0.1111
[ bonds ]
 5288  5291     1    0.153   186188    0.153   186188
[ constraints ] ; from mdp
 5291  5292     1   0.1111   0.1111
[ constraints ] ; from mdp
 5291  5293     1   0.1111   0.1111
[ bonds ]
 5291  5294     1    0.153   186188    0.153   186188
[ constraints ] ; from mdp
 5294  5295     1   0.1111   0.1111
[ constraints ] ; from mdp
 5294  5296     1   0.1111   0.1111
[ bonds ]
 5294  5297     1    0.153   186188    0.153   186188
[ constraints ] ; from mdp
 5297  5298     1   0.1111   0.1111
[ constraints ] ; from mdp
 5297  5299     1   0.1111   0.1111
[ bonds ]
 5297  5300     1    0.153   186188    0.153   186188
[ constraints ] ; from mdp
 5300  5301     1   0.1111   0.1111
[ constraints ] ; from mdp
 5300  5302     1   0.1111   0.1111
[ bonds ]
 5300  5303     1    0.153   186188    0.153   186188
[ constraints ] ; from mdp
 5303  5304     1   0.1111   0.1111
[ constraints ] ; from mdp
 5303  5305     1   0.1111   0.1111
[ bonds ]
 5303  5306     1    0.153   186188    0.153   186188
[ constraints ] ; from mdp
 5306  5307     1   0.1111   0.1111
[ constraints ] ; from mdp
 5306  5308     1   0.1111   0.1111
[ bonds ]
 5306  5309     1    0.153   186188    0.153   186188
[ constraints ] ; from mdp
 5309  5310     1   0.1111   0.1111
[ constraints ] ; from mdp
 5309  5311     1   0.1111   0.1111
[ bonds ]
 5309  5312     1    0.153   186188    0.153   186188
[ constraints ] ; from mdp
 5312  5313     1   0.1111   0.1111
[ constraints ] ; from mdp
 5312  5314     1   0.1111   0.1111
[ bonds ]
 5312  5315     1    0.153   186188    0.153   186188
[ constraints ] ; from mdp
 5315  5316     1   0.1111   0.1111
[ constraints ] ; from mdp
 5315  5317     1   0.1111   0.1111
[ bonds ]
 5315  5318     1    0.153   186188    0.153   186188
[ constraints ] ; from mdp
 5318  5319     1   0.1111   0.1111
[ constraints ] ; from mdp
 5318  5320     1   0.1111   0.1111
[ bonds ]
 5318  5321     1    0.153   186188    0.153   186188
[ constraints ] ; from mdp
 5321  5322     1   0.1111   0.1111
[ constraints ] ; from mdp
 5321  5323     1   0.1111   0.1111
[ bonds ]
 5321  5324     1    0.153   186188    0.153   186188
[ constraints ] ; from mdp
 5324  5325     1   0.1111   0.1111
[ constraints ] ; from mdp
 5324  5326     1   0.1111   0.1111
[ bonds ]
 5324  5327     1   0.1528   186188   0.1528   186188
[ constraints ] ; from mdp
 5327  5328     1   0.1111   0.1111
[ constraints ] ; from mdp
 5327  5329     1   0.1111   0.1111
[ constraints ] ; from mdp
 5327  5330     1   0.1111   0.1111
[ bonds ]
 5331  5332     1    0.151   179912    0.151   179912
[ bonds ]
 5331  5336     1    0.151   179912    0.151   179912
[ bonds ]
 5331  5340     1    0.151   179912    0.151   179912
[ bonds ]
 5331  5344     1    0.151   179912    0.151   179912
[ constraints ] ; from mdp
 5332  5333     1    0.108    0.108
[ constraints ] ; from mdp
 5332  5334     1    0.108    0.108
[ constraints ] ; from mdp
 5332  5335     1    0.108    0.108
[ constraints ] ; from mdp
 5336  5337     1    0.108    0.108
[ constraints ] ; from mdp
 5336  5338     1    0.108    0.108
[ constraints ] ; from mdp
 5336  5339     1    0.108    0.108
[ constraints ] ; from mdp
 5340  5341     1    0.108    0.108
[ constraints ] ; from mdp
 5340  5342     1    0.108    0.108
[ constraints ] ; from mdp
 5340  5343     1    0.108    0.108
[ constraints ] ; from mdp
 5344  5345     1    0.108    0.108
[ constraints ] ; from mdp
 5344  5346     1    0.108    0.108
[ bonds ]
 5344  5347     1    0.153   186188    0.153   186188
[ constraints ] ; from mdp
 5347  5348     1   0.1111   0.1111
[ constraints ] ; from mdp
 5347  5349     1   0.1111   0.1111
[ bonds ]
 5347  5354     1    0.143   284512    0.143   284512
[ bonds ]
 5350  5351     1    0.148   485344    0.148   485344
[ bonds ]
 5350  5352     1    0.148   485344    0.148   485344
[ bonds ]
 5350  5353     1     0.16   225936     0.16   225936
[ bonds ]
 5350  5354     1     0.16   225936     0.16   225936
[ bonds ]
 5353  5355     1    0.143   284512    0.143   284512
[ constraints ] ; from mdp
 5355  5356     1   0.1111   0.1111
[ constraints ] ; from mdp
 5355  5357     1   0.1111   0.1111
[ bonds ]
 5355  5358     1   0.1538   186188   0.1538   186188
[ constraints ] ; from mdp
 5358  5359     1   0.1111   0.1111
[ bonds ]
 5358  5360     1    0.143   284512    0.143   284512
[ bonds ]
 5358  5366     1   0.1538   186188   0.1538   186188
[ bonds ]
 5360  5361     1   0.1334   125520   0.1334   125520
[ bonds ]
 5361  5362     1    0.122   627600    0.122   627600
[ bonds ]
 5361  5363     1   0.1522   167360   0.1522   167360
[ constraints ] ; from mdp
 5363  5364     1   0.1111   0.1111
[ constraints ] ; from mdp
 5363  5365     1   0.1111   0.1111
[ bonds ]
 5363  5375     1    0.153   186188    0.153   186188
[ constraints ] ; from mdp
 5366  5367     1   0.1111   0.1111
[ constraints ] ; from mdp
 5366  5368     1   0.1111   0.1111
[ bonds ]
 5366  5369     1    0.143   284512    0.143   284512
[ bonds ]
 5369  5370     1   0.1334   125520   0.1334   125520
[ bonds ]
 5370  5371     1    0.122   627600    0.122   627600
[ bonds ]
 5370  5372     1   0.1522   167360   0.1522   167360
[ constraints ] ; from mdp
 5372  5373     1   0.1111   0.1111
[ constraints ] ; from mdp
 5372  5374     1   0.1111   0.1111
[ bonds ]
 5372  5418     1    0.153   186188    0.153   186188
[ constraints ] ; from mdp
 5375  5376     1   0.1111   0.1111
[ constraints ] ; from mdp
 5375  5377     1   0.1111   0.1111
[ bonds ]
 5375  5378     1    0.153   186188    0.153   186188
[ constraints ] ; from mdp
 5378  5379     1   0.1111   0.1111
[ constraints ] ; from mdp
 5378  5380     1   0.1111   0.1111
[ bonds ]
 5378  5381     1    0.153   186188    0.153   186188
[ constraints ] ; from mdp
 5381  5382     1   0.1111   0.1111
[ constraints ] ; from mdp
 5381  5383     1   0.1111   0.1111
[ bonds ]
 5381  5384     1    0.153   186188    0.153   186188
[ constraints ] ; from mdp
 5384  5385     1   0.1111   0.1111
[ constraints ] ; from mdp
 5384  5386     1   0.1111   0.1111
[ bonds ]
 5384  5387     1    0.153   186188    0.153   186188
[ constraints ] ; from mdp
 5387  5388     1   0.1111   0.1111
[ constraints ] ; from mdp
 5387  5389     1   0.1111   0.1111
[ bonds ]
 5387  5390     1    0.153   186188    0.153   186188
[ constraints ] ; from mdp
 5390  5391     1   0.1111   0.1111
[ constraints ] ; from mdp
 5390  5392     1   0.1111   0.1111
[ bonds ]
 5390  5393     1    0.153   186188    0.153   186188
[ constraints ] ; from mdp
 5393  5394     1   0.1111   0.1111
[ constraints ] ; from mdp
 5393  5395     1   0.1111   0.1111
[ bonds ]
 5393  5396     1    0.153   186188    0.153   186188
[ constraints ] ; from mdp
 5396  5397     1   0.1111   0.1111
[ constraints ] ; from mdp
 5396  5398     1   0.1111   0.1111
[ bonds ]
 5396  5399     1    0.153   186188    0.153   186188
[ constraints ] ; from mdp
 5399  5400     1   0.1111   0.1111
[ constraints ] ; from mdp
 5399  5401     1   0.1111   0.1111
[ bonds ]
 5399  5402     1    0.153   186188    0.153   186188
[ constraints ] ; from mdp
 5402  5403     1   0.1111   0.1111
[ constraints ] ; from mdp
 5402  5404     1   0.1111   0.1111
[ bonds ]
 5402  5405     1    0.153   186188    0.153   186188
[ constraints ] ; from mdp
 5405  5406     1   0.1111   0.1111
[ constraints ] ; from mdp
 5405  5407     1   0.1111   0.1111
[ bonds ]
 5405  5408     1    0.153   186188    0.153   186188
[ constraints ] ; from mdp
 5408  5409     1   0.1111   0.1111
[ constraints ] ; from mdp
 5408  5410     1   0.1111   0.1111
[ bonds ]
 5408  5411     1    0.153   186188    0.153   186188
[ constraints ] ; from mdp
 5411  5412     1   0.1111   0.1111
[ constraints ] ; from mdp
 5411  5413     1   0.1111   0.1111
[ bonds ]
 5411  5414     1   0.1528   186188   0.1528   186188
[ constraints ] ; from mdp
 5414  5415     1   0.1111   0.1111
[ constraints ] ; from mdp
 5414  5416     1   0.1111   0.1111
[ constraints ] ; from mdp
 5414  5417     1   0.1111   0.1111
[ constraints ] ; from mdp
 5418  5419     1   0.1111   0.1111
[ constraints ] ; from mdp
 5418  5420     1   0.1111   0.1111
[ bonds ]
 5418  5421     1    0.153   186188    0.153   186188
[ constraints ] ; from mdp
 5421  5422     1   0.1111   0.1111
[ constraints ] ; from mdp
 5421  5423     1   0.1111   0.1111
[ bonds ]
 5421  5424     1    0.153   186188    0.153   186188
[ constraints ] ; from mdp
 5424  5425     1   0.1111   0.1111
[ constraints ] ; from mdp
 5424  5426     1   0.1111   0.1111
[ bonds ]
 5424  5427     1    0.153   186188    0.153   186188
[ constraints ] ; from mdp
 5427  5428     1   0.1111   0.1111
[ constraints ] ; from mdp
 5427  5429     1   0.1111   0.1111
[ bonds ]
 5427  5430     1    0.153   186188    0.153   186188
[ constraints ] ; from mdp
 5430  5431     1   0.1111   0.1111
[ constraints ] ; from mdp
 5430  5432     1   0.1111   0.1111
[ bonds ]
 5430  5433     1    0.153   186188    0.153   186188
[ constraints ] ; from mdp
 5433  5434     1   0.1111   0.1111
[ constraints ] ; from mdp
 5433  5435     1   0.1111   0.1111
[ bonds ]
 5433  5436     1    0.153   186188    0.153   186188
[ constraints ] ; from mdp
 5436  5437     1   0.1111   0.1111
[ constraints ] ; from mdp
 5436  5438     1   0.1111   0.1111
[ bonds ]
 5436  5439     1    0.153   186188    0.153   186188
[ constraints ] ; from mdp
 5439  5440     1   0.1111   0.1111
[ constraints ] ; from mdp
 5439  5441     1   0.1111   0.1111
[ bonds ]
 5439  5442     1    0.153   186188    0.153   186188
[ constraints ] ; from mdp
 5442  5443     1   0.1111   0.1111
[ constraints ] ; from mdp
 5442  5444     1   0.1111   0.1111
[ bonds ]
 5442  5445     1    0.153   186188    0.153   186188
[ constraints ] ; from mdp
 5445  5446     1   0.1111   0.1111
[ constraints ] ; from mdp
 5445  5447     1   0.1111   0.1111
[ bonds ]
 5445  5448     1    0.153   186188    0.153   186188
[ constraints ] ; from mdp
 5448  5449     1   0.1111   0.1111
[ constraints ] ; from mdp
 5448  5450     1   0.1111   0.1111
[ bonds ]
 5448  5451     1    0.153   186188    0.153   186188
[ constraints ] ; from mdp
 5451  5452     1   0.1111   0.1111
[ constraints ] ; from mdp
 5451  5453     1   0.1111   0.1111
[ bonds ]
 5451  5454     1    0.153   186188    0.153   186188
[ constraints ] ; from mdp
 5454  5455     1   0.1111   0.1111
[ constraints ] ; from mdp
 5454  5456     1   0.1111   0.1111
[ bonds ]
 5454  5457     1   0.1528   186188   0.1528   186188
[ constraints ] ; from mdp
 5457  5458     1   0.1111   0.1111
[ constraints ] ; from mdp
 5457  5459     1   0.1111   0.1111
[ constraints ] ; from mdp
 5457  5460     1   0.1111   0.1111
[ bonds ]
 5461  5462     1    0.151   179912    0.151   179912
[ bonds ]
 5461  5466     1    0.151   179912    0.151   179912
[ bonds ]
 5461  5470     1    0.151   179912    0.151   179912
[ bonds ]
 5461  5474     1    0.151   179912    0.151   179912
[ constraints ] ; from mdp
 5462  5463     1    0.108    0.108
[ constraints ] ; from mdp
 5462  5464     1    0.108    0.108
[ constraints ] ; from mdp
 5462  5465     1    0.108    0.108
[ constraints ] ; from mdp
 5466  5467     1    0.108    0.108
[ constraints ] ; from mdp
 5466  5468     1    0.108    0.108
[ constraints ] ; from mdp
 5466  5469     1    0.108    0.108
[ constraints ] ; from mdp
 5470  5471     1    0.108    0.108
[ constraints ] ; from mdp
 5470  5472     1    0.108    0.108
[ constraints ] ; from mdp
 5470  5473     1    0.108    0.108
[ constraints ] ; from mdp
 5474  5475     1    0.108    0.108
[ constraints ] ; from mdp
 5474  5476     1    0.108    0.108
[ bonds ]
 5474  5477     1    0.153   186188    0.153   186188
[ constraints ] ; from mdp
 5477  5478     1   0.1111   0.1111
[ constraints ] ; from mdp
 5477  5479     1   0.1111   0.1111
[ bonds ]
 5477  5484     1    0.143   284512    0.143   284512
[ bonds ]
 5480  5481     1    0.148   485344    0.148   485344
[ bonds ]
 5480  5482     1    0.148   485344    0.148   485344
[ bonds ]
 5480  5483     1     0.16   225936     0.16   225936
[ bonds ]
 5480  5484     1     0.16   225936     0.16   225936
[ bonds ]
 5483  5485     1    0.143   284512    0.143   284512
[ constraints ] ; from mdp
 5485  5486     1   0.1111   0.1111
[ constraints ] ; from mdp
 5485  5487     1   0.1111   0.1111
[ bonds ]
 5485  5488     1   0.1538   186188   0.1538   186188
[ constraints ] ; from mdp
 5488  5489     1   0.1111   0.1111
[ bonds ]
 5488  5490     1    0.143   284512    0.143   284512
[ bonds ]
 5488  5496     1   0.1538   186188   0.1538   186188
[ bonds ]
 5490  5491     1   0.1334   125520   0.1334   125520
[ bonds ]
 5491  5492     1    0.122   627600    0.122   627600
[ bonds ]
 5491  5493     1   0.1522   167360   0.1522   167360
[ constraints ] ; from mdp
 5493  5494     1   0.1111   0.1111
[ constraints ] ; from mdp
 5493  5495     1   0.1111   0.1111
[ bonds ]
 5493  5505     1    0.153   186188    0.153   186188
[ constraints ] ; from mdp
 5496  5497     1   0.1111   0.1111
[ constraints ] ; from mdp
 5496  5498     1   0.1111   0.1111
[ bonds ]
 5496  5499     1    0.143   284512    0.143   284512
[ bonds ]
 5499  5500     1   0.1334   125520   0.1334   125520
[ bonds ]
 5500  5501     1    0.122   627600    0.122   627600
[ bonds ]
 5500  5502     1   0.1522   167360   0.1522   167360
[ constraints ] ; from mdp
 5502  5503     1   0.1111   0.1111
[ constraints ] ; from mdp
 5502  5504     1   0.1111   0.1111
[ bonds ]
 5502  5548     1    0.153   186188    0.153   186188
[ constraints ] ; from mdp
 5505  5506     1   0.1111   0.1111
[ constraints ] ; from mdp
 5505  5507     1   0.1111   0.1111
[ bonds ]
 5505  5508     1    0.153   186188    0.153   186188
[ constraints ] ; from mdp
 5508  5509     1   0.1111   0.1111
[ constraints ] ; from mdp
 5508  5510     1   0.1111   0.1111
[ bonds ]
 5508  5511     1    0.153   186188    0.153   186188
[ constraints ] ; from mdp
 5511  5512     1   0.1111   0.1111
[ constraints ] ; from mdp
 5511  5513     1   0.1111   0.1111
[ bonds ]
 5511  5514     1    0.153   186188    0.153   186188
[ constraints ] ; from mdp
 5514  5515     1   0.1111   0.1111
[ constraints ] ; from mdp
 5514  5516     1   0.1111   0.1111
[ bonds ]
 5514  5517     1    0.153   186188    0.153   186188
[ constraints ] ; from mdp
 5517  5518     1   0.1111   0.1111
[ constraints ] ; from mdp
 5517  5519     1   0.1111   0.1111
[ bonds ]
 5517  5520     1    0.153   186188    0.153   186188
[ constraints ] ; from mdp
 5520  5521     1   0.1111   0.1111
[ constraints ] ; from mdp
 5520  5522     1   0.1111   0.1111
[ bonds ]
 5520  5523     1    0.153   186188    0.153   186188
[ constraints ] ; from mdp
 5523  5524     1   0.1111   0.1111
[ constraints ] ; from mdp
 5523  5525     1   0.1111   0.1111
[ bonds ]
 5523  5526     1    0.153   186188    0.153   186188
[ constraints ] ; from mdp
 5526  5527     1   0.1111   0.1111
[ constraints ] ; from mdp
 5526  5528     1   0.1111   0.1111
[ bonds ]
 5526  5529     1    0.153   186188    0.153   186188
[ constraints ] ; from mdp
 5529  5530     1   0.1111   0.1111
[ constraints ] ; from mdp
 5529  5531     1   0.1111   0.1111
[ bonds ]
 5529  5532     1    0.153   186188    0.153   186188
[ constraints ] ; from mdp
 5532  5533     1   0.1111   0.1111
[ constraints ] ; from mdp
 5532  5534     1   0.1111   0.1111
[ bonds ]
 5532  5535     1    0.153   186188    0.153   186188
[ constraints ] ; from mdp
 5535  5536     1   0.1111   0.1111
[ constraints ] ; from mdp
 5535  5537     1   0.1111   0.1111
[ bonds ]
 5535  5538     1    0.153   186188    0.153   186188
[ constraints ] ; from mdp
 5538  5539     1   0.1111   0.1111
[ constraints ] ; from mdp
 5538  5540     1   0.1111   0.1111
[ bonds ]
 5538  5541     1    0.153   186188    0.153   186188
[ constraints ] ; from mdp
 5541  5542     1   0.1111   0.1111
[ constraints ] ; from mdp
 5541  5543     1   0.1111   0.1111
[ bonds ]
 5541  5544     1   0.1528   186188   0.1528   186188
[ constraints ] ; from mdp
 5544  5545     1   0.1111   0.1111
[ constraints ] ; from mdp
 5544  5546     1   0.1111   0.1111
[ constraints ] ; from mdp
 5544  5547     1   0.1111   0.1111
[ constraints ] ; from mdp
 5548  5549     1   0.1111   0.1111
[ constraints ] ; from mdp
 5548  5550     1   0.1111   0.1111
[ bonds ]
 5548  5551     1    0.153   186188    0.153   186188
[ constraints ] ; from mdp
 5551  5552     1   0.1111   0.1111
[ constraints ] ; from mdp
 5551  5553     1   0.1111   0.1111
[ bonds ]
 5551  5554     1    0.153   186188    0.153   186188
[ constraints ] ; from mdp
 5554  5555     1   0.1111   0.1111
[ constraints ] ; from mdp
 5554  5556     1   0.1111   0.1111
[ bonds ]
 5554  5557     1    0.153   186188    0.153   186188
[ constraints ] ; from mdp
 5557  5558     1   0.1111   0.1111
[ constraints ] ; from mdp
 5557  5559     1   0.1111   0.1111
[ bonds ]
 5557  5560     1    0.153   186188    0.153   186188
[ constraints ] ; from mdp
 5560  5561     1   0.1111   0.1111
[ constraints ] ; from mdp
 5560  5562     1   0.1111   0.1111
[ bonds ]
 5560  5563     1    0.153   186188    0.153   186188
[ constraints ] ; from mdp
 5563  5564     1   0.1111   0.1111
[ constraints ] ; from mdp
 5563  5565     1   0.1111   0.1111
[ bonds ]
 5563  5566     1    0.153   186188    0.153   186188
[ constraints ] ; from mdp
 5566  5567     1   0.1111   0.1111
[ constraints ] ; from mdp
 5566  5568     1   0.1111   0.1111
[ bonds ]
 5566  5569     1    0.153   186188    0.153   186188
[ constraints ] ; from mdp
 5569  5570     1   0.1111   0.1111
[ constraints ] ; from mdp
 5569  5571     1   0.1111   0.1111
[ bonds ]
 5569  5572     1    0.153   186188    0.153   186188
[ constraints ] ; from mdp
 5572  5573     1   0.1111   0.1111
[ constraints ] ; from mdp
 5572  5574     1   0.1111   0.1111
[ bonds ]
 5572  5575     1    0.153   186188    0.153   186188
[ constraints ] ; from mdp
 5575  5576     1   0.1111   0.1111
[ constraints ] ; from mdp
 5575  5577     1   0.1111   0.1111
[ bonds ]
 5575  5578     1    0.153   186188    0.153   186188
[ constraints ] ; from mdp
 5578  5579     1   0.1111   0.1111
[ constraints ] ; from mdp
 5578  5580     1   0.1111   0.1111
[ bonds ]
 5578  5581     1    0.153   186188    0.153   186188
[ constraints ] ; from mdp
 5581  5582     1   0.1111   0.1111
[ constraints ] ; from mdp
 5581  5583     1   0.1111   0.1111
[ bonds ]
 5581  5584     1    0.153   186188    0.153   186188
[ constraints ] ; from mdp
 5584  5585     1   0.1111   0.1111
[ constraints ] ; from mdp
 5584  5586     1   0.1111   0.1111
[ bonds ]
 5584  5587     1   0.1528   186188   0.1528   186188
[ constraints ] ; from mdp
 5587  5588     1   0.1111   0.1111
[ constraints ] ; from mdp
 5587  5589     1   0.1111   0.1111
[ constraints ] ; from mdp
 5587  5590     1   0.1111   0.1111
[ bonds ]
 5591  5592     1    0.151   179912    0.151   179912
[ bonds ]
 5591  5596     1    0.151   179912    0.151   179912
[ bonds ]
 5591  5600     1    0.151   179912    0.151   179912
[ bonds ]
 5591  5604     1    0.151   179912    0.151   179912
[ constraints ] ; from mdp
 5592  5593     1    0.108    0.108
[ constraints ] ; from mdp
 5592  5594     1    0.108    0.108
[ constraints ] ; from mdp
 5592  5595     1    0.108    0.108
[ constraints ] ; from mdp
 5596  5597     1    0.108    0.108
[ constraints ] ; from mdp
 5596  5598     1    0.108    0.108
[ constraints ] ; from mdp
 5596  5599     1    0.108    0.108
[ constraints ] ; from mdp
 5600  5601     1    0.108    0.108
[ constraints ] ; from mdp
 5600  5602     1    0.108    0.108
[ constraints ] ; from mdp
 5600  5603     1    0.108    0.108
[ constraints ] ; from mdp
 5604  5605     1    0.108    0.108
[ constraints ] ; from mdp
 5604  5606     1    0.108    0.108
[ bonds ]
 5604  5607     1    0.153   186188    0.153   186188
[ constraints ] ; from mdp
 5607  5608     1   0.1111   0.1111
[ constraints ] ; from mdp
 5607  5609     1   0.1111   0.1111
[ bonds ]
 5607  5614     1    0.143   284512    0.143   284512
[ bonds ]
 5610  5611     1    0.148   485344    0.148   485344
[ bonds ]
 5610  5612     1    0.148   485344    0.148   485344
[ bonds ]
 5610  5613     1     0.16   225936     0.16   225936
[ bonds ]
 5610  5614     1     0.16   225936     0.16   225936
[ bonds ]
 5613  5615     1    0.143   284512    0.143   284512
[ constraints ] ; from mdp
 5615  5616     1   0.1111   0.1111
[ constraints ] ; from mdp
 5615  5617     1   0.1111   0.1111
[ bonds ]
 5615  5618     1   0.1538   186188   0.1538   186188
[ constraints ] ; from mdp
 5618  5619     1   0.1111   0.1111
[ bonds ]
 5618  5620     1    0.143   284512    0.143   284512
[ bonds ]
 5618  5626     1   0.1538   186188   0.1538   186188
[ bonds ]
 5620  5621     1   0.1334   125520   0.1334   125520
[ bonds ]
 5621  5622     1    0.122   627600    0.122   627600
[ bonds ]
 5621  5623     1   0.1522   167360   0.1522   167360
[ constraints ] ; from mdp
 5623  5624     1   0.1111   0.1111
[ constraints ] ; from mdp
 5623  5625     1   0.1111   0.1111
[ bonds ]
 5623  5635     1    0.153   186188    0.153   186188
[ constraints ] ; from mdp
 5626  5627     1   0.1111   0.1111
[ constraints ] ; from mdp
 5626  5628     1   0.1111   0.1111
[ bonds ]
 5626  5629     1    0.143   284512    0.143   284512
[ bonds ]
 5629  5630     1   0.1334   125520   0.1334   125520
[ bonds ]
 5630  5631     1    0.122   627600    0.122   627600
[ bonds ]
 5630  5632     1   0.1522   167360   0.1522   167360
[ constraints ] ; from mdp
 5632  5633     1   0.1111   0.1111
[ constraints ] ; from mdp
 5632  5634     1   0.1111   0.1111
[ bonds ]
 5632  5678     1    0.153   186188    0.153   186188
[ constraints ] ; from mdp
 5635  5636     1   0.1111   0.1111
[ constraints ] ; from mdp
 5635  5637     1   0.1111   0.1111
[ bonds ]
 5635  5638     1    0.153   186188    0.153   186188
[ constraints ] ; from mdp
 5638  5639     1   0.1111   0.1111
[ constraints ] ; from mdp
 5638  5640     1   0.1111   0.1111
[ bonds ]
 5638  5641     1    0.153   186188    0.153   186188
[ constraints ] ; from mdp
 5641  5642     1   0.1111   0.1111
[ constraints ] ; from mdp
 5641  5643     1   0.1111   0.1111
[ bonds ]
 5641  5644     1    0.153   186188    0.153   186188
[ constraints ] ; from mdp
 5644  5645     1   0.1111   0.1111
[ constraints ] ; from mdp
 5644  5646     1   0.1111   0.1111
[ bonds ]
 5644  5647     1    0.153   186188    0.153   186188
[ constraints ] ; from mdp
 5647  5648     1   0.1111   0.1111
[ constraints ] ; from mdp
 5647  5649     1   0.1111   0.1111
[ bonds ]
 5647  5650     1    0.153   186188    0.153   186188
[ constraints ] ; from mdp
 5650  5651     1   0.1111   0.1111
[ constraints ] ; from mdp
 5650  5652     1   0.1111   0.1111
[ bonds ]
 5650  5653     1    0.153   186188    0.153   186188
[ constraints ] ; from mdp
 5653  5654     1   0.1111   0.1111
[ constraints ] ; from mdp
 5653  5655     1   0.1111   0.1111
[ bonds ]
 5653  5656     1    0.153   186188    0.153   186188
[ constraints ] ; from mdp
 5656  5657     1   0.1111   0.1111
[ constraints ] ; from mdp
 5656  5658     1   0.1111   0.1111
[ bonds ]
 5656  5659     1    0.153   186188    0.153   186188
[ constraints ] ; from mdp
 5659  5660     1   0.1111   0.1111
[ constraints ] ; from mdp
 5659  5661     1   0.1111   0.1111
[ bonds ]
 5659  5662     1    0.153   186188    0.153   186188
[ constraints ] ; from mdp
 5662  5663     1   0.1111   0.1111
[ constraints ] ; from mdp
 5662  5664     1   0.1111   0.1111
[ bonds ]
 5662  5665     1    0.153   186188    0.153   186188
[ constraints ] ; from mdp
 5665  5666     1   0.1111   0.1111
[ constraints ] ; from mdp
 5665  5667     1   0.1111   0.1111
[ bonds ]
 5665  5668     1    0.153   186188    0.153   186188
[ constraints ] ; from mdp
 5668  5669     1   0.1111   0.1111
[ constraints ] ; from mdp
 5668  5670     1   0.1111   0.1111
[ bonds ]
 5668  5671     1    0.153   186188    0.153   186188
[ constraints ] ; from mdp
 5671  5672     1   0.1111   0.1111
[ constraints ] ; from mdp
 5671  5673     1   0.1111   0.1111
[ bonds ]
 5671  5674     1   0.1528   186188   0.1528   186188
[ constraints ] ; from mdp
 5674  5675     1   0.1111   0.1111
[ constraints ] ; from mdp
 5674  5676     1   0.1111   0.1111
[ constraints ] ; from mdp
 5674  5677     1   0.1111   0.1111
[ constraints ] ; from mdp
 5678  5679     1   0.1111   0.1111
[ constraints ] ; from mdp
 5678  5680     1   0.1111   0.1111
[ bonds ]
 5678  5681     1    0.153   186188    0.153   186188
[ constraints ] ; from mdp
 5681  5682     1   0.1111   0.1111
[ constraints ] ; from mdp
 5681  5683     1   0.1111   0.1111
[ bonds ]
 5681  5684     1    0.153   186188    0.153   186188
[ constraints ] ; from mdp
 5684  5685     1   0.1111   0.1111
[ constraints ] ; from mdp
 5684  5686     1   0.1111   0.1111
[ bonds ]
 5684  5687     1    0.153   186188    0.153   186188
[ constraints ] ; from mdp
 5687  5688     1   0.1111   0.1111
[ constraints ] ; from mdp
 5687  5689     1   0.1111   0.1111
[ bonds ]
 5687  5690     1    0.153   186188    0.153   186188
[ constraints ] ; from mdp
 5690  5691     1   0.1111   0.1111
[ constraints ] ; from mdp
 5690  5692     1   0.1111   0.1111
[ bonds ]
 5690  5693     1    0.153   186188    0.153   186188
[ constraints ] ; from mdp
 5693  5694     1   0.1111   0.1111
[ constraints ] ; from mdp
 5693  5695     1   0.1111   0.1111
[ bonds ]
 5693  5696     1    0.153   186188    0.153   186188
[ constraints ] ; from mdp
 5696  5697     1   0.1111   0.1111
[ constraints ] ; from mdp
 5696  5698     1   0.1111   0.1111
[ bonds ]
 5696  5699     1    0.153   186188    0.153   186188
[ constraints ] ; from mdp
 5699  5700     1   0.1111   0.1111
[ constraints ] ; from mdp
 5699  5701     1   0.1111   0.1111
[ bonds ]
 5699  5702     1    0.153   186188    0.153   186188
[ constraints ] ; from mdp
 5702  5703     1   0.1111   0.1111
[ constraints ] ; from mdp
 5702  5704     1   0.1111   0.1111
[ bonds ]
 5702  5705     1    0.153   186188    0.153   186188
[ constraints ] ; from mdp
 5705  5706     1   0.1111   0.1111
[ constraints ] ; from mdp
 5705  5707     1   0.1111   0.1111
[ bonds ]
 5705  5708     1    0.153   186188    0.153   186188
[ constraints ] ; from mdp
 5708  5709     1   0.1111   0.1111
[ constraints ] ; from mdp
 5708  5710     1   0.1111   0.1111
[ bonds ]
 5708  5711     1    0.153   186188    0.153   186188
[ constraints ] ; from mdp
 5711  5712     1   0.1111   0.1111
[ constraints ] ; from mdp
 5711  5713     1   0.1111   0.1111
[ bonds ]
 5711  5714     1    0.153   186188    0.153   186188
[ constraints ] ; from mdp
 5714  5715     1   0.1111   0.1111
[ constraints ] ; from mdp
 5714  5716     1   0.1111   0.1111
[ bonds ]
 5714  5717     1   0.1528   186188   0.1528   186188
[ constraints ] ; from mdp
 5717  5718     1   0.1111   0.1111
[ constraints ] ; from mdp
 5717  5719     1   0.1111   0.1111
[ constraints ] ; from mdp
 5717  5720     1   0.1111   0.1111
[ bonds ]
 5721  5722     1    0.151   179912    0.151   179912
[ bonds ]
 5721  5726     1    0.151   179912    0.151   179912
[ bonds ]
 5721  5730     1    0.151   179912    0.151   179912
[ bonds ]
 5721  5734     1    0.151   179912    0.151   179912
[ constraints ] ; from mdp
 5722  5723     1    0.108    0.108
[ constraints ] ; from mdp
 5722  5724     1    0.108    0.108
[ constraints ] ; from mdp
 5722  5725     1    0.108    0.108
[ constraints ] ; from mdp
 5726  5727     1    0.108    0.108
[ constraints ] ; from mdp
 5726  5728     1    0.108    0.108
[ constraints ] ; from mdp
 5726  5729     1    0.108    0.108
[ constraints ] ; from mdp
 5730  5731     1    0.108    0.108
[ constraints ] ; from mdp
 5730  5732     1    0.108    0.108
[ constraints ] ; from mdp
 5730  5733     1    0.108    0.108
[ constraints ] ; from mdp
 5734  5735     1    0.108    0.108
[ constraints ] ; from mdp
 5734  5736     1    0.108    0.108
[ bonds ]
 5734  5737     1    0.153   186188    0.153   186188
[ constraints ] ; from mdp
 5737  5738     1   0.1111   0.1111
[ constraints ] ; from mdp
 5737  5739     1   0.1111   0.1111
[ bonds ]
 5737  5744     1    0.143   284512    0.143   284512
[ bonds ]
 5740  5741     1    0.148   485344    0.148   485344
[ bonds ]
 5740  5742     1    0.148   485344    0.148   485344
[ bonds ]
 5740  5743     1     0.16   225936     0.16   225936
[ bonds ]
 5740  5744     1     0.16   225936     0.16   225936
[ bonds ]
 5743  5745     1    0.143   284512    0.143   284512
[ constraints ] ; from mdp
 5745  5746     1   0.1111   0.1111
[ constraints ] ; from mdp
 5745  5747     1   0.1111   0.1111
[ bonds ]
 5745  5748     1   0.1538   186188   0.1538   186188
[ constraints ] ; from mdp
 5748  5749     1   0.1111   0.1111
[ bonds ]
 5748  5750     1    0.143   284512    0.143   284512
[ bonds ]
 5748  5756     1   0.1538   186188   0.1538   186188
[ bonds ]
 5750  5751     1   0.1334   125520   0.1334   125520
[ bonds ]
 5751  5752     1    0.122   627600    0.122   627600
[ bonds ]
 5751  5753     1   0.1522   167360   0.1522   167360
[ constraints ] ; from mdp
 5753  5754     1   0.1111   0.1111
[ constraints ] ; from mdp
 5753  5755     1   0.1111   0.1111
[ bonds ]
 5753  5765     1    0.153   186188    0.153   186188
[ constraints ] ; from mdp
 5756  5757     1   0.1111   0.1111
[ constraints ] ; from mdp
 5756  5758     1   0.1111   0.1111
[ bonds ]
 5756  5759     1    0.143   284512    0.143   284512
[ bonds ]
 5759  5760     1   0.1334   125520   0.1334   125520
[ bonds ]
 5760  5761     1    0.122   627600    0.122   627600
[ bonds ]
 5760  5762     1   0.1522   167360   0.1522   167360
[ constraints ] ; from mdp
 5762  5763     1   0.1111   0.1111
[ constraints ] ; from mdp
 5762  5764     1   0.1111   0.1111
[ bonds ]
 5762  5808     1    0.153   186188    0.153   186188
[ constraints ] ; from mdp
 5765  5766     1   0.1111   0.1111
[ constraints ] ; from mdp
 5765  5767     1   0.1111   0.1111
[ bonds ]
 5765  5768     1    0.153   186188    0.153   186188
[ constraints ] ; from mdp
 5768  5769     1   0.1111   0.1111
[ constraints ] ; from mdp
 5768  5770     1   0.1111   0.1111
[ bonds ]
 5768  5771     1    0.153   186188    0.153   186188
[ constraints ] ; from mdp
 5771  5772     1   0.1111   0.1111
[ constraints ] ; from mdp
 5771  5773     1   0.1111   0.1111
[ bonds ]
 5771  5774     1    0.153   186188    0.153   186188
[ constraints ] ; from mdp
 5774  5775     1   0.1111   0.1111
[ constraints ] ; from mdp
 5774  5776     1   0.1111   0.1111
[ bonds ]
 5774  5777     1    0.153   186188    0.153   186188
[ constraints ] ; from mdp
 5777  5778     1   0.1111   0.1111
[ constraints ] ; from mdp
 5777  5779     1   0.1111   0.1111
[ bonds ]
 5777  5780     1    0.153   186188    0.153   186188
[ constraints ] ; from mdp
 5780  5781     1   0.1111   0.1111
[ constraints ] ; from mdp
 5780  5782     1   0.1111   0.1111
[ bonds ]
 5780  5783     1    0.153   186188    0.153   186188
[ constraints ] ; from mdp
 5783  5784     1   0.1111   0.1111
[ constraints ] ; from mdp
 5783  5785     1   0.1111   0.1111
[ bonds ]
 5783  5786     1    0.153   186188    0.153   186188
[ constraints ] ; from mdp
 5786  5787     1   0.1111   0.1111
[ constraints ] ; from mdp
 5786  5788     1   0.1111   0.1111
[ bonds ]
 5786  5789     1    0.153   186188    0.153   186188
[ constraints ] ; from mdp
 5789  5790     1   0.1111   0.1111
[ constraints ] ; from mdp
 5789  5791     1   0.1111   0.1111
[ bonds ]
 5789  5792     1    0.153   186188    0.153   186188
[ constraints ] ; from mdp
 5792  5793     1   0.1111   0.1111
[ constraints ] ; from mdp
 5792  5794     1   0.1111   0.1111
[ bonds ]
 5792  5795     1    0.153   186188    0.153   186188
[ constraints ] ; from mdp
 5795  5796     1   0.1111   0.1111
[ constraints ] ; from mdp
 5795  5797     1   0.1111   0.1111
[ bonds ]
 5795  5798     1    0.153   186188    0.153   186188
[ constraints ] ; from mdp
 5798  5799     1   0.1111   0.1111
[ constraints ] ; from mdp
 5798  5800     1   0.1111   0.1111
[ bonds ]
 5798  5801     1    0.153   186188    0.153   186188
[ constraints ] ; from mdp
 5801  5802     1   0.1111   0.1111
[ constraints ] ; from mdp
 5801  5803     1   0.1111   0.1111
[ bonds ]
 5801  5804     1   0.1528   186188   0.1528   186188
[ constraints ] ; from mdp
 5804  5805     1   0.1111   0.1111
[ constraints ] ; from mdp
 5804  5806     1   0.1111   0.1111
[ constraints ] ; from mdp
 5804  5807     1   0.1111   0.1111
[ constraints ] ; from mdp
 5808  5809     1   0.1111   0.1111
[ constraints ] ; from mdp
 5808  5810     1   0.1111   0.1111
[ bonds ]
 5808  5811     1    0.153   186188    0.153   186188
[ constraints ] ; from mdp
 5811  5812     1   0.1111   0.1111
[ constraints ] ; from mdp
 5811  5813     1   0.1111   0.1111
[ bonds ]
 5811  5814     1    0.153   186188    0.153   186188
[ constraints ] ; from mdp
 5814  5815     1   0.1111   0.1111
[ constraints ] ; from mdp
 5814  5816     1   0.1111   0.1111
[ bonds ]
 5814  5817     1    0.153   186188    0.153   186188
[ constraints ] ; from mdp
 5817  5818     1   0.1111   0.1111
[ constraints ] ; from mdp
 5817  5819     1   0.1111   0.1111
[ bonds ]
 5817  5820     1    0.153   186188    0.153   186188
[ constraints ] ; from mdp
 5820  5821     1   0.1111   0.1111
[ constraints ] ; from mdp
 5820  5822     1   0.1111   0.1111
[ bonds ]
 5820  5823     1    0.153   186188    0.153   186188
[ constraints ] ; from mdp
 5823  5824     1   0.1111   0.1111
[ constraints ] ; from mdp
 5823  5825     1   0.1111   0.1111
[ bonds ]
 5823  5826     1    0.153   186188    0.153   186188
[ constraints ] ; from mdp
 5826  5827     1   0.1111   0.1111
[ constraints ] ; from mdp
 5826  5828     1   0.1111   0.1111
[ bonds ]
 5826  5829     1    0.153   186188    0.153   186188
[ constraints ] ; from mdp
 5829  5830     1   0.1111   0.1111
[ constraints ] ; from mdp
 5829  5831     1   0.1111   0.1111
[ bonds ]
 5829  5832     1    0.153   186188    0.153   186188
[ constraints ] ; from mdp
 5832  5833     1   0.1111   0.1111
[ constraints ] ; from mdp
 5832  5834     1   0.1111   0.1111
[ bonds ]
 5832  5835     1    0.153   186188    0.153   186188
[ constraints ] ; from mdp
 5835  5836     1   0.1111   0.1111
[ constraints ] ; from mdp
 5835  5837     1   0.1111   0.1111
[ bonds ]
 5835  5838     1    0.153   186188    0.153   186188
[ constraints ] ; from mdp
 5838  5839     1   0.1111   0.1111
[ constraints ] ; from mdp
 5838  5840     1   0.1111   0.1111
[ bonds ]
 5838  5841     1    0.153   186188    0.153   186188
[ constraints ] ; from mdp
 5841  5842     1   0.1111   0.1111
[ constraints ] ; from mdp
 5841  5843     1   0.1111   0.1111
[ bonds ]
 5841  5844     1    0.153   186188    0.153   186188
[ constraints ] ; from mdp
 5844  5845     1   0.1111   0.1111
[ constraints ] ; from mdp
 5844  5846     1   0.1111   0.1111
[ bonds ]
 5844  5847     1   0.1528   186188   0.1528   186188
[ constraints ] ; from mdp
 5847  5848     1   0.1111   0.1111
[ constraints ] ; from mdp
 5847  5849     1   0.1111   0.1111
[ constraints ] ; from mdp
 5847  5850     1   0.1111   0.1111
[ bonds ]
 5851  5852     1    0.151   179912    0.151   179912
[ bonds ]
 5851  5856     1    0.151   179912    0.151   179912
[ bonds ]
 5851  5860     1    0.151   179912    0.151   179912
[ bonds ]
 5851  5864     1    0.151   179912    0.151   179912
[ constraints ] ; from mdp
 5852  5853     1    0.108    0.108
[ constraints ] ; from mdp
 5852  5854     1    0.108    0.108
[ constraints ] ; from mdp
 5852  5855     1    0.108    0.108
[ constraints ] ; from mdp
 5856  5857     1    0.108    0.108
[ constraints ] ; from mdp
 5856  5858     1    0.108    0.108
[ constraints ] ; from mdp
 5856  5859     1    0.108    0.108
[ constraints ] ; from mdp
 5860  5861     1    0.108    0.108
[ constraints ] ; from mdp
 5860  5862     1    0.108    0.108
[ constraints ] ; from mdp
 5860  5863     1    0.108    0.108
[ constraints ] ; from mdp
 5864  5865     1    0.108    0.108
[ constraints ] ; from mdp
 5864  5866     1    0.108    0.108
[ bonds ]
 5864  5867     1    0.153   186188    0.153   186188
[ constraints ] ; from mdp
 5867  5868     1   0.1111   0.1111
[ constraints ] ; from mdp
 5867  5869     1   0.1111   0.1111
[ bonds ]
 5867  5874     1    0.143   284512    0.143   284512
[ bonds ]
 5870  5871     1    0.148   485344    0.148   485344
[ bonds ]
 5870  5872     1    0.148   485344    0.148   485344
[ bonds ]
 5870  5873     1     0.16   225936     0.16   225936
[ bonds ]
 5870  5874     1     0.16   225936     0.16   225936
[ bonds ]
 5873  5875     1    0.143   284512    0.143   284512
[ constraints ] ; from mdp
 5875  5876     1   0.1111   0.1111
[ constraints ] ; from mdp
 5875  5877     1   0.1111   0.1111
[ bonds ]
 5875  5878     1   0.1538   186188   0.1538   186188
[ constraints ] ; from mdp
 5878  5879     1   0.1111   0.1111
[ bonds ]
 5878  5880     1    0.143   284512    0.143   284512
[ bonds ]
 5878  5886     1   0.1538   186188   0.1538   186188
[ bonds ]
 5880  5881     1   0.1334   125520   0.1334   125520
[ bonds ]
 5881  5882     1    0.122   627600    0.122   627600
[ bonds ]
 5881  5883     1   0.1522   167360   0.1522   167360
[ constraints ] ; from mdp
 5883  5884     1   0.1111   0.1111
[ constraints ] ; from mdp
 5883  5885     1   0.1111   0.1111
[ bonds ]
 5883  5895     1    0.153   186188    0.153   186188
[ constraints ] ; from mdp
 5886  5887     1   0.1111   0.1111
[ constraints ] ; from mdp
 5886  5888     1   0.1111   0.1111
[ bonds ]
 5886  5889     1    0.143   284512    0.143   284512
[ bonds ]
 5889  5890     1   0.1334   125520   0.1334   125520
[ bonds ]
 5890  5891     1    0.122   627600    0.122   627600
[ bonds ]
 5890  5892     1   0.1522   167360   0.1522   167360
[ constraints ] ; from mdp
 5892  5893     1   0.1111   0.1111
[ constraints ] ; from mdp
 5892  5894     1   0.1111   0.1111
[ bonds ]
 5892  5938     1    0.153   186188    0.153   186188
[ constraints ] ; from mdp
 5895  5896     1   0.1111   0.1111
[ constraints ] ; from mdp
 5895  5897     1   0.1111   0.1111
[ bonds ]
 5895  5898     1    0.153   186188    0.153   186188
[ constraints ] ; from mdp
 5898  5899     1   0.1111   0.1111
[ constraints ] ; from mdp
 5898  5900     1   0.1111   0.1111
[ bonds ]
 5898  5901     1    0.153   186188    0.153   186188
[ constraints ] ; from mdp
 5901  5902     1   0.1111   0.1111
[ constraints ] ; from mdp
 5901  5903     1   0.1111   0.1111
[ bonds ]
 5901  5904     1    0.153   186188    0.153   186188
[ constraints ] ; from mdp
 5904  5905     1   0.1111   0.1111
[ constraints ] ; from mdp
 5904  5906     1   0.1111   0.1111
[ bonds ]
 5904  5907     1    0.153   186188    0.153   186188
[ constraints ] ; from mdp
 5907  5908     1   0.1111   0.1111
[ constraints ] ; from mdp
 5907  5909     1   0.1111   0.1111
[ bonds ]
 5907  5910     1    0.153   186188    0.153   186188
[ constraints ] ; from mdp
 5910  5911     1   0.1111   0.1111
[ constraints ] ; from mdp
 5910  5912     1   0.1111   0.1111
[ bonds ]
 5910  5913     1    0.153   186188    0.153   186188
[ constraints ] ; from mdp
 5913  5914     1   0.1111   0.1111
[ constraints ] ; from mdp
 5913  5915     1   0.1111   0.1111
[ bonds ]
 5913  5916     1    0.153   186188    0.153   186188
[ constraints ] ; from mdp
 5916  5917     1   0.1111   0.1111
[ constraints ] ; from mdp
 5916  5918     1   0.1111   0.1111
[ bonds ]
 5916  5919     1    0.153   186188    0.153   186188
[ constraints ] ; from mdp
 5919  5920     1   0.1111   0.1111
[ constraints ] ; from mdp
 5919  5921     1   0.1111   0.1111
[ bonds ]
 5919  5922     1    0.153   186188    0.153   186188
[ constraints ] ; from mdp
 5922  5923     1   0.1111   0.1111
[ constraints ] ; from mdp
 5922  5924     1   0.1111   0.1111
[ bonds ]
 5922  5925     1    0.153   186188    0.153   186188
[ constraints ] ; from mdp
 5925  5926     1   0.1111   0.1111
[ constraints ] ; from mdp
 5925  5927     1   0.1111   0.1111
[ bonds ]
 5925  5928     1    0.153   186188    0.153   186188
[ constraints ] ; from mdp
 5928  5929     1   0.1111   0.1111
[ constraints ] ; from mdp
 5928  5930     1   0.1111   0.1111
[ bonds ]
 5928  5931     1    0.153   186188    0.153   186188
[ constraints ] ; from mdp
 5931  5932     1   0.1111   0.1111
[ constraints ] ; from mdp
 5931  5933     1   0.1111   0.1111
[ bonds ]
 5931  5934     1   0.1528   186188   0.1528   186188
[ constraints ] ; from mdp
 5934  5935     1   0.1111   0.1111
[ constraints ] ; from mdp
 5934  5936     1   0.1111   0.1111
[ constraints ] ; from mdp
 5934  5937     1   0.1111   0.1111
[ constraints ] ; from mdp
 5938  5939     1   0.1111   0.1111
[ constraints ] ; from mdp
 5938  5940     1   0.1111   0.1111
[ bonds ]
 5938  5941     1    0.153   186188    0.153   186188
[ constraints ] ; from mdp
 5941  5942     1   0.1111   0.1111
[ constraints ] ; from mdp
 5941  5943     1   0.1111   0.1111
[ bonds ]
 5941  5944     1    0.153   186188    0.153   186188
[ constraints ] ; from mdp
 5944  5945     1   0.1111   0.1111
[ constraints ] ; from mdp
 5944  5946     1   0.1111   0.1111
[ bonds ]
 5944  5947     1    0.153   186188    0.153   186188
[ constraints ] ; from mdp
 5947  5948     1   0.1111   0.1111
[ constraints ] ; from mdp
 5947  5949     1   0.1111   0.1111
[ bonds ]
 5947  5950     1    0.153   186188    0.153   186188
[ constraints ] ; from mdp
 5950  5951     1   0.1111   0.1111
[ constraints ] ; from mdp
 5950  5952     1   0.1111   0.1111
[ bonds ]
 5950  5953     1    0.153   186188    0.153   186188
[ constraints ] ; from mdp
 5953  5954     1   0.1111   0.1111
[ constraints ] ; from mdp
 5953  5955     1   0.1111   0.1111
[ bonds ]
 5953  5956     1    0.153   186188    0.153   186188
[ constraints ] ; from mdp
 5956  5957     1   0.1111   0.1111
[ constraints ] ; from mdp
 5956  5958     1   0.1111   0.1111
[ bonds ]
 5956  5959     1    0.153   186188    0.153   186188
[ constraints ] ; from mdp
 5959  5960     1   0.1111   0.1111
[ constraints ] ; from mdp
 5959  5961     1   0.1111   0.1111
[ bonds ]
 5959  5962     1    0.153   186188    0.153   186188
[ constraints ] ; from mdp
 5962  5963     1   0.1111   0.1111
[ constraints ] ; from mdp
 5962  5964     1   0.1111   0.1111
[ bonds ]
 5962  5965     1    0.153   186188    0.153   186188
[ constraints ] ; from mdp
 5965  5966     1   0.1111   0.1111
[ constraints ] ; from mdp
 5965  5967     1   0.1111   0.1111
[ bonds ]
 5965  5968     1    0.153   186188    0.153   186188
[ constraints ] ; from mdp
 5968  5969     1   0.1111   0.1111
[ constraints ] ; from mdp
 5968  5970     1   0.1111   0.1111
[ bonds ]
 5968  5971     1    0.153   186188    0.153   186188
[ constraints ] ; from mdp
 5971  5972     1   0.1111   0.1111
[ constraints ] ; from mdp
 5971  5973     1   0.1111   0.1111
[ bonds ]
 5971  5974     1    0.153   186188    0.153   186188
[ constraints ] ; from mdp
 5974  5975     1   0.1111   0.1111
[ constraints ] ; from mdp
 5974  5976     1   0.1111   0.1111
[ bonds ]
 5974  5977     1   0.1528   186188   0.1528   186188
[ constraints ] ; from mdp
 5977  5978     1   0.1111   0.1111
[ constraints ] ; from mdp
 5977  5979     1   0.1111   0.1111
[ constraints ] ; from mdp
 5977  5980     1   0.1111   0.1111
[ bonds ]
 5981  5982     1    0.151   179912    0.151   179912
[ bonds ]
 5981  5986     1    0.151   179912    0.151   179912
[ bonds ]
 5981  5990     1    0.151   179912    0.151   179912
[ bonds ]
 5981  5994     1    0.151   179912    0.151   179912
[ constraints ] ; from mdp
 5982  5983     1    0.108    0.108
[ constraints ] ; from mdp
 5982  5984     1    0.108    0.108
[ constraints ] ; from mdp
 5982  5985     1    0.108    0.108
[ constraints ] ; from mdp
 5986  5987     1    0.108    0.108
[ constraints ] ; from mdp
 5986  5988     1    0.108    0.108
[ constraints ] ; from mdp
 5986  5989     1    0.108    0.108
[ constraints ] ; from mdp
 5990  5991     1    0.108    0.108
[ constraints ] ; from mdp
 5990  5992     1    0.108    0.108
[ constraints ] ; from mdp
 5990  5993     1    0.108    0.108
[ constraints ] ; from mdp
 5994  5995     1    0.108    0.108
[ constraints ] ; from mdp
 5994  5996     1    0.108    0.108
[ bonds ]
 5994  5997     1    0.153   186188    0.153   186188
[ constraints ] ; from mdp
 5997  5998     1   0.1111   0.1111
[ constraints ] ; from mdp
 5997  5999     1   0.1111   0.1111
[ bonds ]
 5997  6004     1    0.143   284512    0.143   284512
[ bonds ]
 6000  6001     1    0.148   485344    0.148   485344
[ bonds ]
 6000  6002     1    0.148   485344    0.148   485344
[ bonds ]
 6000  6003     1     0.16   225936     0.16   225936
[ bonds ]
 6000  6004     1     0.16   225936     0.16   225936
[ bonds ]
 6003  6005     1    0.143   284512    0.143   284512
[ constraints ] ; from mdp
 6005  6006     1   0.1111   0.1111
[ constraints ] ; from mdp
 6005  6007     1   0.1111   0.1111
[ bonds ]
 6005  6008     1   0.1538   186188   0.1538   186188
[ constraints ] ; from mdp
 6008  6009     1   0.1111   0.1111
[ bonds ]
 6008  6010     1    0.143   284512    0.143   284512
[ bonds ]
 6008  6016     1   0.1538   186188   0.1538   186188
[ bonds ]
 6010  6011     1   0.1334   125520   0.1334   125520
[ bonds ]
 6011  6012     1    0.122   627600    0.122   627600
[ bonds ]
 6011  6013     1   0.1522   167360   0.1522   167360
[ constraints ] ; from mdp
 6013  6014     1   0.1111   0.1111
[ constraints ] ; from mdp
 6013  6015     1   0.1111   0.1111
[ bonds ]
 6013  6025     1    0.153   186188    0.153   186188
[ constraints ] ; from mdp
 6016  6017     1   0.1111   0.1111
[ constraints ] ; from mdp
 6016  6018     1   0.1111   0.1111
[ bonds ]
 6016  6019     1    0.143   284512    0.143   284512
[ bonds ]
 6019  6020     1   0.1334   125520   0.1334   125520
[ bonds ]
 6020  6021     1    0.122   627600    0.122   627600
[ bonds ]
 6020  6022     1   0.1522   167360   0.1522   167360
[ constraints ] ; from mdp
 6022  6023     1   0.1111   0.1111
[ constraints ] ; from mdp
 6022  6024     1   0.1111   0.1111
[ bonds ]
 6022  6068     1    0.153   186188    0.153   186188
[ constraints ] ; from mdp
 6025  6026     1   0.1111   0.1111
[ constraints ] ; from mdp
 6025  6027     1   0.1111   0.1111
[ bonds ]
 6025  6028     1    0.153   186188    0.153   186188
[ constraints ] ; from mdp
 6028  6029     1   0.1111   0.1111
[ constraints ] ; from mdp
 6028  6030     1   0.1111   0.1111
[ bonds ]
 6028  6031     1    0.153   186188    0.153   186188
[ constraints ] ; from mdp
 6031  6032     1   0.1111   0.1111
[ constraints ] ; from mdp
 6031  6033     1   0.1111   0.1111
[ bonds ]
 6031  6034     1    0.153   186188    0.153   186188
[ constraints ] ; from mdp
 6034  6035     1   0.1111   0.1111
[ constraints ] ; from mdp
 6034  6036     1   0.1111   0.1111
[ bonds ]
 6034  6037     1    0.153   186188    0.153   186188
[ constraints ] ; from mdp
 6037  6038     1   0.1111   0.1111
[ constraints ] ; from mdp
 6037  6039     1   0.1111   0.1111
[ bonds ]
 6037  6040     1    0.153   186188    0.153   186188
[ constraints ] ; from mdp
 6040  6041     1   0.1111   0.1111
[ constraints ] ; from mdp
 6040  6042     1   0.1111   0.1111
[ bonds ]
 6040  6043     1    0.153   186188    0.153   186188
[ constraints ] ; from mdp
 6043  6044     1   0.1111   0.1111
[ constraints ] ; from mdp
 6043  6045     1   0.1111   0.1111
[ bonds ]
 6043  6046     1    0.153   186188    0.153   186188
[ constraints ] ; from mdp
 6046  6047     1   0.1111   0.1111
[ constraints ] ; from mdp
 6046  6048     1   0.1111   0.1111
[ bonds ]
 6046  6049     1    0.153   186188    0.153   186188
[ constraints ] ; from mdp
 6049  6050     1   0.1111   0.1111
[ constraints ] ; from mdp
 6049  6051     1   0.1111   0.1111
[ bonds ]
 6049  6052     1    0.153   186188    0.153   186188
[ constraints ] ; from mdp
 6052  6053     1   0.1111   0.1111
[ constraints ] ; from mdp
 6052  6054     1   0.1111   0.1111
[ bonds ]
 6052  6055     1    0.153   186188    0.153   186188
[ constraints ] ; from mdp
 6055  6056     1   0.1111   0.1111
[ constraints ] ; from mdp
 6055  6057     1   0.1111   0.1111
[ bonds ]
 6055  6058     1    0.153   186188    0.153   186188
[ constraints ] ; from mdp
 6058  6059     1   0.1111   0.1111
[ constraints ] ; from mdp
 6058  6060     1   0.1111   0.1111
[ bonds ]
 6058  6061     1    0.153   186188    0.153   186188
[ constraints ] ; from mdp
 6061  6062     1   0.1111   0.1111
[ constraints ] ; from mdp
 6061  6063     1   0.1111   0.1111
[ bonds ]
 6061  6064     1   0.1528   186188   0.1528   186188
[ constraints ] ; from mdp
 6064  6065     1   0.1111   0.1111
[ constraints ] ; from mdp
 6064  6066     1   0.1111   0.1111
[ constraints ] ; from mdp
 6064  6067     1   0.1111   0.1111
[ constraints ] ; from mdp
 6068  6069     1   0.1111   0.1111
[ constraints ] ; from mdp
 6068  6070     1   0.1111   0.1111
[ bonds ]
 6068  6071     1    0.153   186188    0.153   186188
[ constraints ] ; from mdp
 6071  6072     1   0.1111   0.1111
[ constraints ] ; from mdp
 6071  6073     1   0.1111   0.1111
[ bonds ]
 6071  6074     1    0.153   186188    0.153   186188
[ constraints ] ; from mdp
 6074  6075     1   0.1111   0.1111
[ constraints ] ; from mdp
 6074  6076     1   0.1111   0.1111
[ bonds ]
 6074  6077     1    0.153   186188    0.153   186188
[ constraints ] ; from mdp
 6077  6078     1   0.1111   0.1111
[ constraints ] ; from mdp
 6077  6079     1   0.1111   0.1111
[ bonds ]
 6077  6080     1    0.153   186188    0.153   186188
[ constraints ] ; from mdp
 6080  6081     1   0.1111   0.1111
[ constraints ] ; from mdp
 6080  6082     1   0.1111   0.1111
[ bonds ]
 6080  6083     1    0.153   186188    0.153   186188
[ constraints ] ; from mdp
 6083  6084     1   0.1111   0.1111
[ constraints ] ; from mdp
 6083  6085     1   0.1111   0.1111
[ bonds ]
 6083  6086     1    0.153   186188    0.153   186188
[ constraints ] ; from mdp
 6086  6087     1   0.1111   0.1111
[ constraints ] ; from mdp
 6086  6088     1   0.1111   0.1111
[ bonds ]
 6086  6089     1    0.153   186188    0.153   186188
[ constraints ] ; from mdp
 6089  6090     1   0.1111   0.1111
[ constraints ] ; from mdp
 6089  6091     1   0.1111   0.1111
[ bonds ]
 6089  6092     1    0.153   186188    0.153   186188
[ constraints ] ; from mdp
 6092  6093     1   0.1111   0.1111
[ constraints ] ; from mdp
 6092  6094     1   0.1111   0.1111
[ bonds ]
 6092  6095     1    0.153   186188    0.153   186188
[ constraints ] ; from mdp
 6095  6096     1   0.1111   0.1111
[ constraints ] ; from mdp
 6095  6097     1   0.1111   0.1111
[ bonds ]
 6095  6098     1    0.153   186188    0.153   186188
[ constraints ] ; from mdp
 6098  6099     1   0.1111   0.1111
[ constraints ] ; from mdp
 6098  6100     1   0.1111   0.1111
[ bonds ]
 6098  6101     1    0.153   186188    0.153   186188
[ constraints ] ; from mdp
 6101  6102     1   0.1111   0.1111
[ constraints ] ; from mdp
 6101  6103     1   0.1111   0.1111
[ bonds ]
 6101  6104     1    0.153   186188    0.153   186188
[ constraints ] ; from mdp
 6104  6105     1   0.1111   0.1111
[ constraints ] ; from mdp
 6104  6106     1   0.1111   0.1111
[ bonds ]
 6104  6107     1   0.1528   186188   0.1528   186188
[ constraints ] ; from mdp
 6107  6108     1   0.1111   0.1111
[ constraints ] ; from mdp
 6107  6109     1   0.1111   0.1111
[ constraints ] ; from mdp
 6107  6110     1   0.1111   0.1111
[ bonds ]
 6111  6112     1    0.151   179912    0.151   179912
[ bonds ]
 6111  6116     1    0.151   179912    0.151   179912
[ bonds ]
 6111  6120     1    0.151   179912    0.151   179912
[ bonds ]
 6111  6124     1    0.151   179912    0.151   179912
[ constraints ] ; from mdp
 6112  6113     1    0.108    0.108
[ constraints ] ; from mdp
 6112  6114     1    0.108    0.108
[ constraints ] ; from mdp
 6112  6115     1    0.108    0.108
[ constraints ] ; from mdp
 6116  6117     1    0.108    0.108
[ constraints ] ; from mdp
 6116  6118     1    0.108    0.108
[ constraints ] ; from mdp
 6116  6119     1    0.108    0.108
[ constraints ] ; from mdp
 6120  6121     1    0.108    0.108
[ constraints ] ; from mdp
 6120  6122     1    0.108    0.108
[ constraints ] ; from mdp
 6120  6123     1    0.108    0.108
[ constraints ] ; from mdp
 6124  6125     1    0.108    0.108
[ constraints ] ; from mdp
 6124  6126     1    0.108    0.108
[ bonds ]
 6124  6127     1    0.153   186188    0.153   186188
[ constraints ] ; from mdp
 6127  6128     1   0.1111   0.1111
[ constraints ] ; from mdp
 6127  6129     1   0.1111   0.1111
[ bonds ]
 6127  6134     1    0.143   284512    0.143   284512
[ bonds ]
 6130  6131     1    0.148   485344    0.148   485344
[ bonds ]
 6130  6132     1    0.148   485344    0.148   485344
[ bonds ]
 6130  6133     1     0.16   225936     0.16   225936
[ bonds ]
 6130  6134     1     0.16   225936     0.16   225936
[ bonds ]
 6133  6135     1    0.143   284512    0.143   284512
[ constraints ] ; from mdp
 6135  6136     1   0.1111   0.1111
[ constraints ] ; from mdp
 6135  6137     1   0.1111   0.1111
[ bonds ]
 6135  6138     1   0.1538   186188   0.1538   186188
[ constraints ] ; from mdp
 6138  6139     1   0.1111   0.1111
[ bonds ]
 6138  6140     1    0.143   284512    0.143   284512
[ bonds ]
 6138  6146     1   0.1538   186188   0.1538   186188
[ bonds ]
 6140  6141     1   0.1334   125520   0.1334   125520
[ bonds ]
 6141  6142     1    0.122   627600    0.122   627600
[ bonds ]
 6141  6143     1   0.1522   167360   0.1522   167360
[ constraints ] ; from mdp
 6143  6144     1   0.1111   0.1111
[ constraints ] ; from mdp
 6143  6145     1   0.1111   0.1111
[ bonds ]
 6143  6155     1    0.153   186188    0.153   186188
[ constraints ] ; from mdp
 6146  6147     1   0.1111   0.1111
[ constraints ] ; from mdp
 6146  6148     1   0.1111   0.1111
[ bonds ]
 6146  6149     1    0.143   284512    0.143   284512
[ bonds ]
 6149  6150     1   0.1334   125520   0.1334   125520
[ bonds ]
 6150  6151     1    0.122   627600    0.122   627600
[ bonds ]
 6150  6152     1   0.1522   167360   0.1522   167360
[ constraints ] ; from mdp
 6152  6153     1   0.1111   0.1111
[ constraints ] ; from mdp
 6152  6154     1   0.1111   0.1111
[ bonds ]
 6152  6198     1    0.153   186188    0.153   186188
[ constraints ] ; from mdp
 6155  6156     1   0.1111   0.1111
[ constraints ] ; from mdp
 6155  6157     1   0.1111   0.1111
[ bonds ]
 6155  6158     1    0.153   186188    0.153   186188
[ constraints ] ; from mdp
 6158  6159     1   0.1111   0.1111
[ constraints ] ; from mdp
 6158  6160     1   0.1111   0.1111
[ bonds ]
 6158  6161     1    0.153   186188    0.153   186188
[ constraints ] ; from mdp
 6161  6162     1   0.1111   0.1111
[ constraints ] ; from mdp
 6161  6163     1   0.1111   0.1111
[ bonds ]
 6161  6164     1    0.153   186188    0.153   186188
[ constraints ] ; from mdp
 6164  6165     1   0.1111   0.1111
[ constraints ] ; from mdp
 6164  6166     1   0.1111   0.1111
[ bonds ]
 6164  6167     1    0.153   186188    0.153   186188
[ constraints ] ; from mdp
 6167  6168     1   0.1111   0.1111
[ constraints ] ; from mdp
 6167  6169     1   0.1111   0.1111
[ bonds ]
 6167  6170     1    0.153   186188    0.153   186188
[ constraints ] ; from mdp
 6170  6171     1   0.1111   0.1111
[ constraints ] ; from mdp
 6170  6172     1   0.1111   0.1111
[ bonds ]
 6170  6173     1    0.153   186188    0.153   186188
[ constraints ] ; from mdp
 6173  6174     1   0.1111   0.1111
[ constraints ] ; from mdp
 6173  6175     1   0.1111   0.1111
[ bonds ]
 6173  6176     1    0.153   186188    0.153   186188
[ constraints ] ; from mdp
 6176  6177     1   0.1111   0.1111
[ constraints ] ; from mdp
 6176  6178     1   0.1111   0.1111
[ bonds ]
 6176  6179     1    0.153   186188    0.153   186188
[ constraints ] ; from mdp
 6179  6180     1   0.1111   0.1111
[ constraints ] ; from mdp
 6179  6181     1   0.1111   0.1111
[ bonds ]
 6179  6182     1    0.153   186188    0.153   186188
[ constraints ] ; from mdp
 6182  6183     1   0.1111   0.1111
[ constraints ] ; from mdp
 6182  6184     1   0.1111   0.1111
[ bonds ]
 6182  6185     1    0.153   186188    0.153   186188
[ constraints ] ; from mdp
 6185  6186     1   0.1111   0.1111
[ constraints ] ; from mdp
 6185  6187     1   0.1111   0.1111
[ bonds ]
 6185  6188     1    0.153   186188    0.153   186188
[ constraints ] ; from mdp
 6188  6189     1   0.1111   0.1111
[ constraints ] ; from mdp
 6188  6190     1   0.1111   0.1111
[ bonds ]
 6188  6191     1    0.153   186188    0.153   186188
[ constraints ] ; from mdp
 6191  6192     1   0.1111   0.1111
[ constraints ] ; from mdp
 6191  6193     1   0.1111   0.1111
[ bonds ]
 6191  6194     1   0.1528   186188   0.1528   186188
[ constraints ] ; from mdp
 6194  6195     1   0.1111   0.1111
[ constraints ] ; from mdp
 6194  6196     1   0.1111   0.1111
[ constraints ] ; from mdp
 6194  6197     1   0.1111   0.1111
[ constraints ] ; from mdp
 6198  6199     1   0.1111   0.1111
[ constraints ] ; from mdp
 6198  6200     1   0.1111   0.1111
[ bonds ]
 6198  6201     1    0.153   186188    0.153   186188
[ constraints ] ; from mdp
 6201  6202     1   0.1111   0.1111
[ constraints ] ; from mdp
 6201  6203     1   0.1111   0.1111
[ bonds ]
 6201  6204     1    0.153   186188    0.153   186188
[ constraints ] ; from mdp
 6204  6205     1   0.1111   0.1111
[ constraints ] ; from mdp
 6204  6206     1   0.1111   0.1111
[ bonds ]
 6204  6207     1    0.153   186188    0.153   186188
[ constraints ] ; from mdp
 6207  6208     1   0.1111   0.1111
[ constraints ] ; from mdp
 6207  6209     1   0.1111   0.1111
[ bonds ]
 6207  6210     1    0.153   186188    0.153   186188
[ constraints ] ; from mdp
 6210  6211     1   0.1111   0.1111
[ constraints ] ; from mdp
 6210  6212     1   0.1111   0.1111
[ bonds ]
 6210  6213     1    0.153   186188    0.153   186188
[ constraints ] ; from mdp
 6213  6214     1   0.1111   0.1111
[ constraints ] ; from mdp
 6213  6215     1   0.1111   0.1111
[ bonds ]
 6213  6216     1    0.153   186188    0.153   186188
[ constraints ] ; from mdp
 6216  6217     1   0.1111   0.1111
[ constraints ] ; from mdp
 6216  6218     1   0.1111   0.1111
[ bonds ]
 6216  6219     1    0.153   186188    0.153   186188
[ constraints ] ; from mdp
 6219  6220     1   0.1111   0.1111
[ constraints ] ; from mdp
 6219  6221     1   0.1111   0.1111
[ bonds ]
 6219  6222     1    0.153   186188    0.153   186188
[ constraints ] ; from mdp
 6222  6223     1   0.1111   0.1111
[ constraints ] ; from mdp
 6222  6224     1   0.1111   0.1111
[ bonds ]
 6222  6225     1    0.153   186188    0.153   186188
[ constraints ] ; from mdp
 6225  6226     1   0.1111   0.1111
[ constraints ] ; from mdp
 6225  6227     1   0.1111   0.1111
[ bonds ]
 6225  6228     1    0.153   186188    0.153   186188
[ constraints ] ; from mdp
 6228  6229     1   0.1111   0.1111
[ constraints ] ; from mdp
 6228  6230     1   0.1111   0.1111
[ bonds ]
 6228  6231     1    0.153   186188    0.153   186188
[ constraints ] ; from mdp
 6231  6232     1   0.1111   0.1111
[ constraints ] ; from mdp
 6231  6233     1   0.1111   0.1111
[ bonds ]
 6231  6234     1    0.153   186188    0.153   186188
[ constraints ] ; from mdp
 6234  6235     1   0.1111   0.1111
[ constraints ] ; from mdp
 6234  6236     1   0.1111   0.1111
[ bonds ]
 6234  6237     1   0.1528   186188   0.1528   186188
[ constraints ] ; from mdp
 6237  6238     1   0.1111   0.1111
[ constraints ] ; from mdp
 6237  6239     1   0.1111   0.1111
[ constraints ] ; from mdp
 6237  6240     1   0.1111   0.1111
[ bonds ]
 6241  6242     1    0.151   179912    0.151   179912
[ bonds ]
 6241  6246     1    0.151   179912    0.151   179912
[ bonds ]
 6241  6250     1    0.151   179912    0.151   179912
[ bonds ]
 6241  6254     1    0.151   179912    0.151   179912
[ constraints ] ; from mdp
 6242  6243     1    0.108    0.108
[ constraints ] ; from mdp
 6242  6244     1    0.108    0.108
[ constraints ] ; from mdp
 6242  6245     1    0.108    0.108
[ constraints ] ; from mdp
 6246  6247     1    0.108    0.108
[ constraints ] ; from mdp
 6246  6248     1    0.108    0.108
[ constraints ] ; from mdp
 6246  6249     1    0.108    0.108
[ constraints ] ; from mdp
 6250  6251     1    0.108    0.108
[ constraints ] ; from mdp
 6250  6252     1    0.108    0.108
[ constraints ] ; from mdp
 6250  6253     1    0.108    0.108
[ constraints ] ; from mdp
 6254  6255     1    0.108    0.108
[ constraints ] ; from mdp
 6254  6256     1    0.108    0.108
[ bonds ]
 6254  6257     1    0.153   186188    0.153   186188
[ constraints ] ; from mdp
 6257  6258     1   0.1111   0.1111
[ constraints ] ; from mdp
 6257  6259     1   0.1111   0.1111
[ bonds ]
 6257  6264     1    0.143   284512    0.143   284512
[ bonds ]
 6260  6261     1    0.148   485344    0.148   485344
[ bonds ]
 6260  6262     1    0.148   485344    0.148   485344
[ bonds ]
 6260  6263     1     0.16   225936     0.16   225936
[ bonds ]
 6260  6264     1     0.16   225936     0.16   225936
[ bonds ]
 6263  6265     1    0.143   284512    0.143   284512
[ constraints ] ; from mdp
 6265  6266     1   0.1111   0.1111
[ constraints ] ; from mdp
 6265  6267     1   0.1111   0.1111
[ bonds ]
 6265  6268     1   0.1538   186188   0.1538   186188
[ constraints ] ; from mdp
 6268  6269     1   0.1111   0.1111
[ bonds ]
 6268  6270     1    0.143   284512    0.143   284512
[ bonds ]
 6268  6276     1   0.1538   186188   0.1538   186188
[ bonds ]
 6270  6271     1   0.1334   125520   0.1334   125520
[ bonds ]
 6271  6272     1    0.122   627600    0.122   627600
[ bonds ]
 6271  6273     1   0.1522   167360   0.1522   167360
[ constraints ] ; from mdp
 6273  6274     1   0.1111   0.1111
[ constraints ] ; from mdp
 6273  6275     1   0.1111   0.1111
[ bonds ]
 6273  6285     1    0.153   186188    0.153   186188
[ constraints ] ; from mdp
 6276  6277     1   0.1111   0.1111
[ constraints ] ; from mdp
 6276  6278     1   0.1111   0.1111
[ bonds ]
 6276  6279     1    0.143   284512    0.143   284512
[ bonds ]
 6279  6280     1   0.1334   125520   0.1334   125520
[ bonds ]
 6280  6281     1    0.122   627600    0.122   627600
[ bonds ]
 6280  6282     1   0.1522   167360   0.1522   167360
[ constraints ] ; from mdp
 6282  6283     1   0.1111   0.1111
[ constraints ] ; from mdp
 6282  6284     1   0.1111   0.1111
[ bonds ]
 6282  6328     1    0.153   186188    0.153   186188
[ constraints ] ; from mdp
 6285  6286     1   0.1111   0.1111
[ constraints ] ; from mdp
 6285  6287     1   0.1111   0.1111
[ bonds ]
 6285  6288     1    0.153   186188    0.153   186188
[ constraints ] ; from mdp
 6288  6289     1   0.1111   0.1111
[ constraints ] ; from mdp
 6288  6290     1   0.1111   0.1111
[ bonds ]
 6288  6291     1    0.153   186188    0.153   186188
[ constraints ] ; from mdp
 6291  6292     1   0.1111   0.1111
[ constraints ] ; from mdp
 6291  6293     1   0.1111   0.1111
[ bonds ]
 6291  6294     1    0.153   186188    0.153   186188
[ constraints ] ; from mdp
 6294  6295     1   0.1111   0.1111
[ constraints ] ; from mdp
 6294  6296     1   0.1111   0.1111
[ bonds ]
 6294  6297     1    0.153   186188    0.153   186188
[ constraints ] ; from mdp
 6297  6298     1   0.1111   0.1111
[ constraints ] ; from mdp
 6297  6299     1   0.1111   0.1111
[ bonds ]
 6297  6300     1    0.153   186188    0.153   186188
[ constraints ] ; from mdp
 6300  6301     1   0.1111   0.1111
[ constraints ] ; from mdp
 6300  6302     1   0.1111   0.1111
[ bonds ]
 6300  6303     1    0.153   186188    0.153   186188
[ constraints ] ; from mdp
 6303  6304     1   0.1111   0.1111
[ constraints ] ; from mdp
 6303  6305     1   0.1111   0.1111
[ bonds ]
 6303  6306     1    0.153   186188    0.153   186188
[ constraints ] ; from mdp
 6306  6307     1   0.1111   0.1111
[ constraints ] ; from mdp
 6306  6308     1   0.1111   0.1111
[ bonds ]
 6306  6309     1    0.153   186188    0.153   186188
[ constraints ] ; from mdp
 6309  6310     1   0.1111   0.1111
[ constraints ] ; from mdp
 6309  6311     1   0.1111   0.1111
[ bonds ]
 6309  6312     1    0.153   186188    0.153   186188
[ constraints ] ; from mdp
 6312  6313     1   0.1111   0.1111
[ constraints ] ; from mdp
 6312  6314     1   0.1111   0.1111
[ bonds ]
 6312  6315     1    0.153   186188    0.153   186188
[ constraints ] ; from mdp
 6315  6316     1   0.1111   0.1111
[ constraints ] ; from mdp
 6315  6317     1   0.1111   0.1111
[ bonds ]
 6315  6318     1    0.153   186188    0.153   186188
[ constraints ] ; from mdp
 6318  6319     1   0.1111   0.1111
[ constraints ] ; from mdp
 6318  6320     1   0.1111   0.1111
[ bonds ]
 6318  6321     1    0.153   186188    0.153   186188
[ constraints ] ; from mdp
 6321  6322     1   0.1111   0.1111
[ constraints ] ; from mdp
 6321  6323     1   0.1111   0.1111
[ bonds ]
 6321  6324     1   0.1528   186188   0.1528   186188
[ constraints ] ; from mdp
 6324  6325     1   0.1111   0.1111
[ constraints ] ; from mdp
 6324  6326     1   0.1111   0.1111
[ constraints ] ; from mdp
 6324  6327     1   0.1111   0.1111
[ constraints ] ; from mdp
 6328  6329     1   0.1111   0.1111
[ constraints ] ; from mdp
 6328  6330     1   0.1111   0.1111
[ bonds ]
 6328  6331     1    0.153   186188    0.153   186188
[ constraints ] ; from mdp
 6331  6332     1   0.1111   0.1111
[ constraints ] ; from mdp
 6331  6333     1   0.1111   0.1111
[ bonds ]
 6331  6334     1    0.153   186188    0.153   186188
[ constraints ] ; from mdp
 6334  6335     1   0.1111   0.1111
[ constraints ] ; from mdp
 6334  6336     1   0.1111   0.1111
[ bonds ]
 6334  6337     1    0.153   186188    0.153   186188
[ constraints ] ; from mdp
 6337  6338     1   0.1111   0.1111
[ constraints ] ; from mdp
 6337  6339     1   0.1111   0.1111
[ bonds ]
 6337  6340     1    0.153   186188    0.153   186188
[ constraints ] ; from mdp
 6340  6341     1   0.1111   0.1111
[ constraints ] ; from mdp
 6340  6342     1   0.1111   0.1111
[ bonds ]
 6340  6343     1    0.153   186188    0.153   186188
[ constraints ] ; from mdp
 6343  6344     1   0.1111   0.1111
[ constraints ] ; from mdp
 6343  6345     1   0.1111   0.1111
[ bonds ]
 6343  6346     1    0.153   186188    0.153   186188
[ constraints ] ; from mdp
 6346  6347     1   0.1111   0.1111
[ constraints ] ; from mdp
 6346  6348     1   0.1111   0.1111
[ bonds ]
 6346  6349     1    0.153   186188    0.153   186188
[ constraints ] ; from mdp
 6349  6350     1   0.1111   0.1111
[ constraints ] ; from mdp
 6349  6351     1   0.1111   0.1111
[ bonds ]
 6349  6352     1    0.153   186188    0.153   186188
[ constraints ] ; from mdp
 6352  6353     1   0.1111   0.1111
[ constraints ] ; from mdp
 6352  6354     1   0.1111   0.1111
[ bonds ]
 6352  6355     1    0.153   186188    0.153   186188
[ constraints ] ; from mdp
 6355  6356     1   0.1111   0.1111
[ constraints ] ; from mdp
 6355  6357     1   0.1111   0.1111
[ bonds ]
 6355  6358     1    0.153   186188    0.153   186188
[ constraints ] ; from mdp
 6358  6359     1   0.1111   0.1111
[ constraints ] ; from mdp
 6358  6360     1   0.1111   0.1111
[ bonds ]
 6358  6361     1    0.153   186188    0.153   186188
[ constraints ] ; from mdp
 6361  6362     1   0.1111   0.1111
[ constraints ] ; from mdp
 6361  6363     1   0.1111   0.1111
[ bonds ]
 6361  6364     1    0.153   186188    0.153   186188
[ constraints ] ; from mdp
 6364  6365     1   0.1111   0.1111
[ constraints ] ; from mdp
 6364  6366     1   0.1111   0.1111
[ bonds ]
 6364  6367     1   0.1528   186188   0.1528   186188
[ constraints ] ; from mdp
 6367  6368     1   0.1111   0.1111
[ constraints ] ; from mdp
 6367  6369     1   0.1111   0.1111
[ constraints ] ; from mdp
 6367  6370     1   0.1111   0.1111
[ bonds ]
 6371  6372     1    0.151   179912    0.151   179912
[ bonds ]
 6371  6376     1    0.151   179912    0.151   179912
[ bonds ]
 6371  6380     1    0.151   179912    0.151   179912
[ bonds ]
 6371  6384     1    0.151   179912    0.151   179912
[ constraints ] ; from mdp
 6372  6373     1    0.108    0.108
[ constraints ] ; from mdp
 6372  6374     1    0.108    0.108
[ constraints ] ; from mdp
 6372  6375     1    0.108    0.108
[ constraints ] ; from mdp
 6376  6377     1    0.108    0.108
[ constraints ] ; from mdp
 6376  6378     1    0.108    0.108
[ constraints ] ; from mdp
 6376  6379     1    0.108    0.108
[ constraints ] ; from mdp
 6380  6381     1    0.108    0.108
[ constraints ] ; from mdp
 6380  6382     1    0.108    0.108
[ constraints ] ; from mdp
 6380  6383     1    0.108    0.108
[ constraints ] ; from mdp
 6384  6385     1    0.108    0.108
[ constraints ] ; from mdp
 6384  6386     1    0.108    0.108
[ bonds ]
 6384  6387     1    0.153   186188    0.153   186188
[ constraints ] ; from mdp
 6387  6388     1   0.1111   0.1111
[ constraints ] ; from mdp
 6387  6389     1   0.1111   0.1111
[ bonds ]
 6387  6394     1    0.143   284512    0.143   284512
[ bonds ]
 6390  6391     1    0.148   485344    0.148   485344
[ bonds ]
 6390  6392     1    0.148   485344    0.148   485344
[ bonds ]
 6390  6393     1     0.16   225936     0.16   225936
[ bonds ]
 6390  6394     1     0.16   225936     0.16   225936
[ bonds ]
 6393  6395     1    0.143   284512    0.143   284512
[ constraints ] ; from mdp
 6395  6396     1   0.1111   0.1111
[ constraints ] ; from mdp
 6395  6397     1   0.1111   0.1111
[ bonds ]
 6395  6398     1   0.1538   186188   0.1538   186188
[ constraints ] ; from mdp
 6398  6399     1   0.1111   0.1111
[ bonds ]
 6398  6400     1    0.143   284512    0.143   284512
[ bonds ]
 6398  6406     1   0.1538   186188   0.1538   186188
[ bonds ]
 6400  6401     1   0.1334   125520   0.1334   125520
[ bonds ]
 6401  6402     1    0.122   627600    0.122   627600
[ bonds ]
 6401  6403     1   0.1522   167360   0.1522   167360
[ constraints ] ; from mdp
 6403  6404     1   0.1111   0.1111
[ constraints ] ; from mdp
 6403  6405     1   0.1111   0.1111
[ bonds ]
 6403  6415     1    0.153   186188    0.153   186188
[ constraints ] ; from mdp
 6406  6407     1   0.1111   0.1111
[ constraints ] ; from mdp
 6406  6408     1   0.1111   0.1111
[ bonds ]
 6406  6409     1    0.143   284512    0.143   284512
[ bonds ]
 6409  6410     1   0.1334   125520   0.1334   125520
[ bonds ]
 6410  6411     1    0.122   627600    0.122   627600
[ bonds ]
 6410  6412     1   0.1522   167360   0.1522   167360
[ constraints ] ; from mdp
 6412  6413     1   0.1111   0.1111
[ constraints ] ; from mdp
 6412  6414     1   0.1111   0.1111
[ bonds ]
 6412  6458     1    0.153   186188    0.153   186188
[ constraints ] ; from mdp
 6415  6416     1   0.1111   0.1111
[ constraints ] ; from mdp
 6415  6417     1   0.1111   0.1111
[ bonds ]
 6415  6418     1    0.153   186188    0.153   186188
[ constraints ] ; from mdp
 6418  6419     1   0.1111   0.1111
[ constraints ] ; from mdp
 6418  6420     1   0.1111   0.1111
[ bonds ]
 6418  6421     1    0.153   186188    0.153   186188
[ constraints ] ; from mdp
 6421  6422     1   0.1111   0.1111
[ constraints ] ; from mdp
 6421  6423     1   0.1111   0.1111
[ bonds ]
 6421  6424     1    0.153   186188    0.153   186188
[ constraints ] ; from mdp
 6424  6425     1   0.1111   0.1111
[ constraints ] ; from mdp
 6424  6426     1   0.1111   0.1111
[ bonds ]
 6424  6427     1    0.153   186188    0.153   186188
[ constraints ] ; from mdp
 6427  6428     1   0.1111   0.1111
[ constraints ] ; from mdp
 6427  6429     1   0.1111   0.1111
[ bonds ]
 6427  6430     1    0.153   186188    0.153   186188
[ constraints ] ; from mdp
 6430  6431     1   0.1111   0.1111
[ constraints ] ; from mdp
 6430  6432     1   0.1111   0.1111
[ bonds ]
 6430  6433     1    0.153   186188    0.153   186188
[ constraints ] ; from mdp
 6433  6434     1   0.1111   0.1111
[ constraints ] ; from mdp
 6433  6435     1   0.1111   0.1111
[ bonds ]
 6433  6436     1    0.153   186188    0.153   186188
[ constraints ] ; from mdp
 6436  6437     1   0.1111   0.1111
[ constraints ] ; from mdp
 6436  6438     1   0.1111   0.1111
[ bonds ]
 6436  6439     1    0.153   186188    0.153   186188
[ constraints ] ; from mdp
 6439  6440     1   0.1111   0.1111
[ constraints ] ; from mdp
 6439  6441     1   0.1111   0.1111
[ bonds ]
 6439  6442     1    0.153   186188    0.153   186188
[ constraints ] ; from mdp
 6442  6443     1   0.1111   0.1111
[ constraints ] ; from mdp
 6442  6444     1   0.1111   0.1111
[ bonds ]
 6442  6445     1    0.153   186188    0.153   186188
[ constraints ] ; from mdp
 6445  6446     1   0.1111   0.1111
[ constraints ] ; from mdp
 6445  6447     1   0.1111   0.1111
[ bonds ]
 6445  6448     1    0.153   186188    0.153   186188
[ constraints ] ; from mdp
 6448  6449     1   0.1111   0.1111
[ constraints ] ; from mdp
 6448  6450     1   0.1111   0.1111
[ bonds ]
 6448  6451     1    0.153   186188    0.153   186188
[ constraints ] ; from mdp
 6451  6452     1   0.1111   0.1111
[ constraints ] ; from mdp
 6451  6453     1   0.1111   0.1111
[ bonds ]
 6451  6454     1   0.1528   186188   0.1528   186188
[ constraints ] ; from mdp
 6454  6455     1   0.1111   0.1111
[ constraints ] ; from mdp
 6454  6456     1   0.1111   0.1111
[ constraints ] ; from mdp
 6454  6457     1   0.1111   0.1111
[ constraints ] ; from mdp
 6458  6459     1   0.1111   0.1111
[ constraints ] ; from mdp
 6458  6460     1   0.1111   0.1111
[ bonds ]
 6458  6461     1    0.153   186188    0.153   186188
[ constraints ] ; from mdp
 6461  6462     1   0.1111   0.1111
[ constraints ] ; from mdp
 6461  6463     1   0.1111   0.1111
[ bonds ]
 6461  6464     1    0.153   186188    0.153   186188
[ constraints ] ; from mdp
 6464  6465     1   0.1111   0.1111
[ constraints ] ; from mdp
 6464  6466     1   0.1111   0.1111
[ bonds ]
 6464  6467     1    0.153   186188    0.153   186188
[ constraints ] ; from mdp
 6467  6468     1   0.1111   0.1111
[ constraints ] ; from mdp
 6467  6469     1   0.1111   0.1111
[ bonds ]
 6467  6470     1    0.153   186188    0.153   186188
[ constraints ] ; from mdp
 6470  6471     1   0.1111   0.1111
[ constraints ] ; from mdp
 6470  6472     1   0.1111   0.1111
[ bonds ]
 6470  6473     1    0.153   186188    0.153   186188
[ constraints ] ; from mdp
 6473  6474     1   0.1111   0.1111
[ constraints ] ; from mdp
 6473  6475     1   0.1111   0.1111
[ bonds ]
 6473  6476     1    0.153   186188    0.153   186188
[ constraints ] ; from mdp
 6476  6477     1   0.1111   0.1111
[ constraints ] ; from mdp
 6476  6478     1   0.1111   0.1111
[ bonds ]
 6476  6479     1    0.153   186188    0.153   186188
[ constraints ] ; from mdp
 6479  6480     1   0.1111   0.1111
[ constraints ] ; from mdp
 6479  6481     1   0.1111   0.1111
[ bonds ]
 6479  6482     1    0.153   186188    0.153   186188
[ constraints ] ; from mdp
 6482  6483     1   0.1111   0.1111
[ constraints ] ; from mdp
 6482  6484     1   0.1111   0.1111
[ bonds ]
 6482  6485     1    0.153   186188    0.153   186188
[ constraints ] ; from mdp
 6485  6486     1   0.1111   0.1111
[ constraints ] ; from mdp
 6485  6487     1   0.1111   0.1111
[ bonds ]
 6485  6488     1    0.153   186188    0.153   186188
[ constraints ] ; from mdp
 6488  6489     1   0.1111   0.1111
[ constraints ] ; from mdp
 6488  6490     1   0.1111   0.1111
[ bonds ]
 6488  6491     1    0.153   186188    0.153   186188
[ constraints ] ; from mdp
 6491  6492     1   0.1111   0.1111
[ constraints ] ; from mdp
 6491  6493     1   0.1111   0.1111
[ bonds ]
 6491  6494     1    0.153   186188    0.153   186188
[ constraints ] ; from mdp
 6494  6495     1   0.1111   0.1111
[ constraints ] ; from mdp
 6494  6496     1   0.1111   0.1111
[ bonds ]
 6494  6497     1   0.1528   186188   0.1528   186188
[ constraints ] ; from mdp
 6497  6498     1   0.1111   0.1111
[ constraints ] ; from mdp
 6497  6499     1   0.1111   0.1111
[ constraints ] ; from mdp
 6497  6500     1   0.1111   0.1111
[ bonds ]
 6501  6502     1    0.151   179912    0.151   179912
[ bonds ]
 6501  6506     1    0.151   179912    0.151   179912
[ bonds ]
 6501  6510     1    0.151   179912    0.151   179912
[ bonds ]
 6501  6514     1    0.151   179912    0.151   179912
[ constraints ] ; from mdp
 6502  6503     1    0.108    0.108
[ constraints ] ; from mdp
 6502  6504     1    0.108    0.108
[ constraints ] ; from mdp
 6502  6505     1    0.108    0.108
[ constraints ] ; from mdp
 6506  6507     1    0.108    0.108
[ constraints ] ; from mdp
 6506  6508     1    0.108    0.108
[ constraints ] ; from mdp
 6506  6509     1    0.108    0.108
[ constraints ] ; from mdp
 6510  6511     1    0.108    0.108
[ constraints ] ; from mdp
 6510  6512     1    0.108    0.108
[ constraints ] ; from mdp
 6510  6513     1    0.108    0.108
[ constraints ] ; from mdp
 6514  6515     1    0.108    0.108
[ constraints ] ; from mdp
 6514  6516     1    0.108    0.108
[ bonds ]
 6514  6517     1    0.153   186188    0.153   186188
[ constraints ] ; from mdp
 6517  6518     1   0.1111   0.1111
[ constraints ] ; from mdp
 6517  6519     1   0.1111   0.1111
[ bonds ]
 6517  6524     1    0.143   284512    0.143   284512
[ bonds ]
 6520  6521     1    0.148   485344    0.148   485344
[ bonds ]
 6520  6522     1    0.148   485344    0.148   485344
[ bonds ]
 6520  6523     1     0.16   225936     0.16   225936
[ bonds ]
 6520  6524     1     0.16   225936     0.16   225936
[ bonds ]
 6523  6525     1    0.143   284512    0.143   284512
[ constraints ] ; from mdp
 6525  6526     1   0.1111   0.1111
[ constraints ] ; from mdp
 6525  6527     1   0.1111   0.1111
[ bonds ]
 6525  6528     1   0.1538   186188   0.1538   186188
[ constraints ] ; from mdp
 6528  6529     1   0.1111   0.1111
[ bonds ]
 6528  6530     1    0.143   284512    0.143   284512
[ bonds ]
 6528  6536     1   0.1538   186188   0.1538   186188
[ bonds ]
 6530  6531     1   0.1334   125520   0.1334   125520
[ bonds ]
 6531  6532     1    0.122   627600    0.122   627600
[ bonds ]
 6531  6533     1   0.1522   167360   0.1522   167360
[ constraints ] ; from mdp
 6533  6534     1   0.1111   0.1111
[ constraints ] ; from mdp
 6533  6535     1   0.1111   0.1111
[ bonds ]
 6533  6545     1    0.153   186188    0.153   186188
[ constraints ] ; from mdp
 6536  6537     1   0.1111   0.1111
[ constraints ] ; from mdp
 6536  6538     1   0.1111   0.1111
[ bonds ]
 6536  6539     1    0.143   284512    0.143   284512
[ bonds ]
 6539  6540     1   0.1334   125520   0.1334   125520
[ bonds ]
 6540  6541     1    0.122   627600    0.122   627600
[ bonds ]
 6540  6542     1   0.1522   167360   0.1522   167360
[ constraints ] ; from mdp
 6542  6543     1   0.1111   0.1111
[ constraints ] ; from mdp
 6542  6544     1   0.1111   0.1111
[ bonds ]
 6542  6588     1    0.153   186188    0.153   186188
[ constraints ] ; from mdp
 6545  6546     1   0.1111   0.1111
[ constraints ] ; from mdp
 6545  6547     1   0.1111   0.1111
[ bonds ]
 6545  6548     1    0.153   186188    0.153   186188
[ constraints ] ; from mdp
 6548  6549     1   0.1111   0.1111
[ constraints ] ; from mdp
 6548  6550     1   0.1111   0.1111
[ bonds ]
 6548  6551     1    0.153   186188    0.153   186188
[ constraints ] ; from mdp
 6551  6552     1   0.1111   0.1111
[ constraints ] ; from mdp
 6551  6553     1   0.1111   0.1111
[ bonds ]
 6551  6554     1    0.153   186188    0.153   186188
[ constraints ] ; from mdp
 6554  6555     1   0.1111   0.1111
[ constraints ] ; from mdp
 6554  6556     1   0.1111   0.1111
[ bonds ]
 6554  6557     1    0.153   186188    0.153   186188
[ constraints ] ; from mdp
 6557  6558     1   0.1111   0.1111
[ constraints ] ; from mdp
 6557  6559     1   0.1111   0.1111
[ bonds ]
 6557  6560     1    0.153   186188    0.153   186188
[ constraints ] ; from mdp
 6560  6561     1   0.1111   0.1111
[ constraints ] ; from mdp
 6560  6562     1   0.1111   0.1111
[ bonds ]
 6560  6563     1    0.153   186188    0.153   186188
[ constraints ] ; from mdp
 6563  6564     1   0.1111   0.1111
[ constraints ] ; from mdp
 6563  6565     1   0.1111   0.1111
[ bonds ]
 6563  6566     1    0.153   186188    0.153   186188
[ constraints ] ; from mdp
 6566  6567     1   0.1111   0.1111
[ constraints ] ; from mdp
 6566  6568     1   0.1111   0.1111
[ bonds ]
 6566  6569     1    0.153   186188    0.153   186188
[ constraints ] ; from mdp
 6569  6570     1   0.1111   0.1111
[ constraints ] ; from mdp
 6569  6571     1   0.1111   0.1111
[ bonds ]
 6569  6572     1    0.153   186188    0.153   186188
[ constraints ] ; from mdp
 6572  6573     1   0.1111   0.1111
[ constraints ] ; from mdp
 6572  6574     1   0.1111   0.1111
[ bonds ]
 6572  6575     1    0.153   186188    0.153   186188
[ constraints ] ; from mdp
 6575  6576     1   0.1111   0.1111
[ constraints ] ; from mdp
 6575  6577     1   0.1111   0.1111
[ bonds ]
 6575  6578     1    0.153   186188    0.153   186188
[ constraints ] ; from mdp
 6578  6579     1   0.1111   0.1111
[ constraints ] ; from mdp
 6578  6580     1   0.1111   0.1111
[ bonds ]
 6578  6581     1    0.153   186188    0.153   186188
[ constraints ] ; from mdp
 6581  6582     1   0.1111   0.1111
[ constraints ] ; from mdp
 6581  6583     1   0.1111   0.1111
[ bonds ]
 6581  6584     1   0.1528   186188   0.1528   186188
[ constraints ] ; from mdp
 6584  6585     1   0.1111   0.1111
[ constraints ] ; from mdp
 6584  6586     1   0.1111   0.1111
[ constraints ] ; from mdp
 6584  6587     1   0.1111   0.1111
[ constraints ] ; from mdp
 6588  6589     1   0.1111   0.1111
[ constraints ] ; from mdp
 6588  6590     1   0.1111   0.1111
[ bonds ]
 6588  6591     1    0.153   186188    0.153   186188
[ constraints ] ; from mdp
 6591  6592     1   0.1111   0.1111
[ constraints ] ; from mdp
 6591  6593     1   0.1111   0.1111
[ bonds ]
 6591  6594     1    0.153   186188    0.153   186188
[ constraints ] ; from mdp
 6594  6595     1   0.1111   0.1111
[ constraints ] ; from mdp
 6594  6596     1   0.1111   0.1111
[ bonds ]
 6594  6597     1    0.153   186188    0.153   186188
[ constraints ] ; from mdp
 6597  6598     1   0.1111   0.1111
[ constraints ] ; from mdp
 6597  6599     1   0.1111   0.1111
[ bonds ]
 6597  6600     1    0.153   186188    0.153   186188
[ constraints ] ; from mdp
 6600  6601     1   0.1111   0.1111
[ constraints ] ; from mdp
 6600  6602     1   0.1111   0.1111
[ bonds ]
 6600  6603     1    0.153   186188    0.153   186188
[ constraints ] ; from mdp
 6603  6604     1   0.1111   0.1111
[ constraints ] ; from mdp
 6603  6605     1   0.1111   0.1111
[ bonds ]
 6603  6606     1    0.153   186188    0.153   186188
[ constraints ] ; from mdp
 6606  6607     1   0.1111   0.1111
[ constraints ] ; from mdp
 6606  6608     1   0.1111   0.1111
[ bonds ]
 6606  6609     1    0.153   186188    0.153   186188
[ constraints ] ; from mdp
 6609  6610     1   0.1111   0.1111
[ constraints ] ; from mdp
 6609  6611     1   0.1111   0.1111
[ bonds ]
 6609  6612     1    0.153   186188    0.153   186188
[ constraints ] ; from mdp
 6612  6613     1   0.1111   0.1111
[ constraints ] ; from mdp
 6612  6614     1   0.1111   0.1111
[ bonds ]
 6612  6615     1    0.153   186188    0.153   186188
[ constraints ] ; from mdp
 6615  6616     1   0.1111   0.1111
[ constraints ] ; from mdp
 6615  6617     1   0.1111   0.1111
[ bonds ]
 6615  6618     1    0.153   186188    0.153   186188
[ constraints ] ; from mdp
 6618  6619     1   0.1111   0.1111
[ constraints ] ; from mdp
 6618  6620     1   0.1111   0.1111
[ bonds ]
 6618  6621     1    0.153   186188    0.153   186188
[ constraints ] ; from mdp
 6621  6622     1   0.1111   0.1111
[ constraints ] ; from mdp
 6621  6623     1   0.1111   0.1111
[ bonds ]
 6621  6624     1    0.153   186188    0.153   186188
[ constraints ] ; from mdp
 6624  6625     1   0.1111   0.1111
[ constraints ] ; from mdp
 6624  6626     1   0.1111   0.1111
[ bonds ]
 6624  6627     1   0.1528   186188   0.1528   186188
[ constraints ] ; from mdp
 6627  6628     1   0.1111   0.1111
[ constraints ] ; from mdp
 6627  6629     1   0.1111   0.1111
[ constraints ] ; from mdp
 6627  6630     1   0.1111   0.1111
[ bonds ]
 6631  6632     1    0.151   179912    0.151   179912
[ bonds ]
 6631  6636     1    0.151   179912    0.151   179912
[ bonds ]
 6631  6640     1    0.151   179912    0.151   179912
[ bonds ]
 6631  6644     1    0.151   179912    0.151   179912
[ constraints ] ; from mdp
 6632  6633     1    0.108    0.108
[ constraints ] ; from mdp
 6632  6634     1    0.108    0.108
[ constraints ] ; from mdp
 6632  6635     1    0.108    0.108
[ constraints ] ; from mdp
 6636  6637     1    0.108    0.108
[ constraints ] ; from mdp
 6636  6638     1    0.108    0.108
[ constraints ] ; from mdp
 6636  6639     1    0.108    0.108
[ constraints ] ; from mdp
 6640  6641     1    0.108    0.108
[ constraints ] ; from mdp
 6640  6642     1    0.108    0.108
[ constraints ] ; from mdp
 6640  6643     1    0.108    0.108
[ constraints ] ; from mdp
 6644  6645     1    0.108    0.108
[ constraints ] ; from mdp
 6644  6646     1    0.108    0.108
[ bonds ]
 6644  6647     1    0.153   186188    0.153   186188
[ constraints ] ; from mdp
 6647  6648     1   0.1111   0.1111
[ constraints ] ; from mdp
 6647  6649     1   0.1111   0.1111
[ bonds ]
 6647  6654     1    0.143   284512    0.143   284512
[ bonds ]
 6650  6651     1    0.148   485344    0.148   485344
[ bonds ]
 6650  6652     1    0.148   485344    0.148   485344
[ bonds ]
 6650  6653     1     0.16   225936     0.16   225936
[ bonds ]
 6650  6654     1     0.16   225936     0.16   225936
[ bonds ]
 6653  6655     1    0.143   284512    0.143   284512
[ constraints ] ; from mdp
 6655  6656     1   0.1111   0.1111
[ constraints ] ; from mdp
 6655  6657     1   0.1111   0.1111
[ bonds ]
 6655  6658     1   0.1538   186188   0.1538   186188
[ constraints ] ; from mdp
 6658  6659     1   0.1111   0.1111
[ bonds ]
 6658  6660     1    0.143   284512    0.143   284512
[ bonds ]
 6658  6666     1   0.1538   186188   0.1538   186188
[ bonds ]
 6660  6661     1   0.1334   125520   0.1334   125520
[ bonds ]
 6661  6662     1    0.122   627600    0.122   627600
[ bonds ]
 6661  6663     1   0.1522   167360   0.1522   167360
[ constraints ] ; from mdp
 6663  6664     1   0.1111   0.1111
[ constraints ] ; from mdp
 6663  6665     1   0.1111   0.1111
[ bonds ]
 6663  6675     1    0.153   186188    0.153   186188
[ constraints ] ; from mdp
 6666  6667     1   0.1111   0.1111
[ constraints ] ; from mdp
 6666  6668     1   0.1111   0.1111
[ bonds ]
 6666  6669     1    0.143   284512    0.143   284512
[ bonds ]
 6669  6670     1   0.1334   125520   0.1334   125520
[ bonds ]
 6670  6671     1    0.122   627600    0.122   627600
[ bonds ]
 6670  6672     1   0.1522   167360   0.1522   167360
[ constraints ] ; from mdp
 6672  6673     1   0.1111   0.1111
[ constraints ] ; from mdp
 6672  6674     1   0.1111   0.1111
[ bonds ]
 6672  6718     1    0.153   186188    0.153   186188
[ constraints ] ; from mdp
 6675  6676     1   0.1111   0.1111
[ constraints ] ; from mdp
 6675  6677     1   0.1111   0.1111
[ bonds ]
 6675  6678     1    0.153   186188    0.153   186188
[ constraints ] ; from mdp
 6678  6679     1   0.1111   0.1111
[ constraints ] ; from mdp
 6678  6680     1   0.1111   0.1111
[ bonds ]
 6678  6681     1    0.153   186188    0.153   186188
[ constraints ] ; from mdp
 6681  6682     1   0.1111   0.1111
[ constraints ] ; from mdp
 6681  6683     1   0.1111   0.1111
[ bonds ]
 6681  6684     1    0.153   186188    0.153   186188
[ constraints ] ; from mdp
 6684  6685     1   0.1111   0.1111
[ constraints ] ; from mdp
 6684  6686     1   0.1111   0.1111
[ bonds ]
 6684  6687     1    0.153   186188    0.153   186188
[ constraints ] ; from mdp
 6687  6688     1   0.1111   0.1111
[ constraints ] ; from mdp
 6687  6689     1   0.1111   0.1111
[ bonds ]
 6687  6690     1    0.153   186188    0.153   186188
[ constraints ] ; from mdp
 6690  6691     1   0.1111   0.1111
[ constraints ] ; from mdp
 6690  6692     1   0.1111   0.1111
[ bonds ]
 6690  6693     1    0.153   186188    0.153   186188
[ constraints ] ; from mdp
 6693  6694     1   0.1111   0.1111
[ constraints ] ; from mdp
 6693  6695     1   0.1111   0.1111
[ bonds ]
 6693  6696     1    0.153   186188    0.153   186188
[ constraints ] ; from mdp
 6696  6697     1   0.1111   0.1111
[ constraints ] ; from mdp
 6696  6698     1   0.1111   0.1111
[ bonds ]
 6696  6699     1    0.153   186188    0.153   186188
[ constraints ] ; from mdp
 6699  6700     1   0.1111   0.1111
[ constraints ] ; from mdp
 6699  6701     1   0.1111   0.1111
[ bonds ]
 6699  6702     1    0.153   186188    0.153   186188
[ constraints ] ; from mdp
 6702  6703     1   0.1111   0.1111
[ constraints ] ; from mdp
 6702  6704     1   0.1111   0.1111
[ bonds ]
 6702  6705     1    0.153   186188    0.153   186188
[ constraints ] ; from mdp
 6705  6706     1   0.1111   0.1111
[ constraints ] ; from mdp
 6705  6707     1   0.1111   0.1111
[ bonds ]
 6705  6708     1    0.153   186188    0.153   186188
[ constraints ] ; from mdp
 6708  6709     1   0.1111   0.1111
[ constraints ] ; from mdp
 6708  6710     1   0.1111   0.1111
[ bonds ]
 6708  6711     1    0.153   186188    0.153   186188
[ constraints ] ; from mdp
 6711  6712     1   0.1111   0.1111
[ constraints ] ; from mdp
 6711  6713     1   0.1111   0.1111
[ bonds ]
 6711  6714     1   0.1528   186188   0.1528   186188
[ constraints ] ; from mdp
 6714  6715     1   0.1111   0.1111
[ constraints ] ; from mdp
 6714  6716     1   0.1111   0.1111
[ constraints ] ; from mdp
 6714  6717     1   0.1111   0.1111
[ constraints ] ; from mdp
 6718  6719     1   0.1111   0.1111
[ constraints ] ; from mdp
 6718  6720     1   0.1111   0.1111
[ bonds ]
 6718  6721     1    0.153   186188    0.153   186188
[ constraints ] ; from mdp
 6721  6722     1   0.1111   0.1111
[ constraints ] ; from mdp
 6721  6723     1   0.1111   0.1111
[ bonds ]
 6721  6724     1    0.153   186188    0.153   186188
[ constraints ] ; from mdp
 6724  6725     1   0.1111   0.1111
[ constraints ] ; from mdp
 6724  6726     1   0.1111   0.1111
[ bonds ]
 6724  6727     1    0.153   186188    0.153   186188
[ constraints ] ; from mdp
 6727  6728     1   0.1111   0.1111
[ constraints ] ; from mdp
 6727  6729     1   0.1111   0.1111
[ bonds ]
 6727  6730     1    0.153   186188    0.153   186188
[ constraints ] ; from mdp
 6730  6731     1   0.1111   0.1111
[ constraints ] ; from mdp
 6730  6732     1   0.1111   0.1111
[ bonds ]
 6730  6733     1    0.153   186188    0.153   186188
[ constraints ] ; from mdp
 6733  6734     1   0.1111   0.1111
[ constraints ] ; from mdp
 6733  6735     1   0.1111   0.1111
[ bonds ]
 6733  6736     1    0.153   186188    0.153   186188
[ constraints ] ; from mdp
 6736  6737     1   0.1111   0.1111
[ constraints ] ; from mdp
 6736  6738     1   0.1111   0.1111
[ bonds ]
 6736  6739     1    0.153   186188    0.153   186188
[ constraints ] ; from mdp
 6739  6740     1   0.1111   0.1111
[ constraints ] ; from mdp
 6739  6741     1   0.1111   0.1111
[ bonds ]
 6739  6742     1    0.153   186188    0.153   186188
[ constraints ] ; from mdp
 6742  6743     1   0.1111   0.1111
[ constraints ] ; from mdp
 6742  6744     1   0.1111   0.1111
[ bonds ]
 6742  6745     1    0.153   186188    0.153   186188
[ constraints ] ; from mdp
 6745  6746     1   0.1111   0.1111
[ constraints ] ; from mdp
 6745  6747     1   0.1111   0.1111
[ bonds ]
 6745  6748     1    0.153   186188    0.153   186188
[ constraints ] ; from mdp
 6748  6749     1   0.1111   0.1111
[ constraints ] ; from mdp
 6748  6750     1   0.1111   0.1111
[ bonds ]
 6748  6751     1    0.153   186188    0.153   186188
[ constraints ] ; from mdp
 6751  6752     1   0.1111   0.1111
[ constraints ] ; from mdp
 6751  6753     1   0.1111   0.1111
[ bonds ]
 6751  6754     1    0.153   186188    0.153   186188
[ constraints ] ; from mdp
 6754  6755     1   0.1111   0.1111
[ constraints ] ; from mdp
 6754  6756     1   0.1111   0.1111
[ bonds ]
 6754  6757     1   0.1528   186188   0.1528   186188
[ constraints ] ; from mdp
 6757  6758     1   0.1111   0.1111
[ constraints ] ; from mdp
 6757  6759     1   0.1111   0.1111
[ constraints ] ; from mdp
 6757  6760     1   0.1111   0.1111
[ bonds ]
 6761  6762     1    0.151   179912    0.151   179912
[ bonds ]
 6761  6766     1    0.151   179912    0.151   179912
[ bonds ]
 6761  6770     1    0.151   179912    0.151   179912
[ bonds ]
 6761  6774     1    0.151   179912    0.151   179912
[ constraints ] ; from mdp
 6762  6763     1    0.108    0.108
[ constraints ] ; from mdp
 6762  6764     1    0.108    0.108
[ constraints ] ; from mdp
 6762  6765     1    0.108    0.108
[ constraints ] ; from mdp
 6766  6767     1    0.108    0.108
[ constraints ] ; from mdp
 6766  6768     1    0.108    0.108
[ constraints ] ; from mdp
 6766  6769     1    0.108    0.108
[ constraints ] ; from mdp
 6770  6771     1    0.108    0.108
[ constraints ] ; from mdp
 6770  6772     1    0.108    0.108
[ constraints ] ; from mdp
 6770  6773     1    0.108    0.108
[ constraints ] ; from mdp
 6774  6775     1    0.108    0.108
[ constraints ] ; from mdp
 6774  6776     1    0.108    0.108
[ bonds ]
 6774  6777     1    0.153   186188    0.153   186188
[ constraints ] ; from mdp
 6777  6778     1   0.1111   0.1111
[ constraints ] ; from mdp
 6777  6779     1   0.1111   0.1111
[ bonds ]
 6777  6784     1    0.143   284512    0.143   284512
[ bonds ]
 6780  6781     1    0.148   485344    0.148   485344
[ bonds ]
 6780  6782     1    0.148   485344    0.148   485344
[ bonds ]
 6780  6783     1     0.16   225936     0.16   225936
[ bonds ]
 6780  6784     1     0.16   225936     0.16   225936
[ bonds ]
 6783  6785     1    0.143   284512    0.143   284512
[ constraints ] ; from mdp
 6785  6786     1   0.1111   0.1111
[ constraints ] ; from mdp
 6785  6787     1   0.1111   0.1111
[ bonds ]
 6785  6788     1   0.1538   186188   0.1538   186188
[ constraints ] ; from mdp
 6788  6789     1   0.1111   0.1111
[ bonds ]
 6788  6790     1    0.143   284512    0.143   284512
[ bonds ]
 6788  6796     1   0.1538   186188   0.1538   186188
[ bonds ]
 6790  6791     1   0.1334   125520   0.1334   125520
[ bonds ]
 6791  6792     1    0.122   627600    0.122   627600
[ bonds ]
 6791  6793     1   0.1522   167360   0.1522   167360
[ constraints ] ; from mdp
 6793  6794     1   0.1111   0.1111
[ constraints ] ; from mdp
 6793  6795     1   0.1111   0.1111
[ bonds ]
 6793  6805     1    0.153   186188    0.153   186188
[ constraints ] ; from mdp
 6796  6797     1   0.1111   0.1111
[ constraints ] ; from mdp
 6796  6798     1   0.1111   0.1111
[ bonds ]
 6796  6799     1    0.143   284512    0.143   284512
[ bonds ]
 6799  6800     1   0.1334   125520   0.1334   125520
[ bonds ]
 6800  6801     1    0.122   627600    0.122   627600
[ bonds ]
 6800  6802     1   0.1522   167360   0.1522   167360
[ constraints ] ; from mdp
 6802  6803     1   0.1111   0.1111
[ constraints ] ; from mdp
 6802  6804     1   0.1111   0.1111
[ bonds ]
 6802  6848     1    0.153   186188    0.153   186188
[ constraints ] ; from mdp
 6805  6806     1   0.1111   0.1111
[ constraints ] ; from mdp
 6805  6807     1   0.1111   0.1111
[ bonds ]
 6805  6808     1    0.153   186188    0.153   186188
[ constraints ] ; from mdp
 6808  6809     1   0.1111   0.1111
[ constraints ] ; from mdp
 6808  6810     1   0.1111   0.1111
[ bonds ]
 6808  6811     1    0.153   186188    0.153   186188
[ constraints ] ; from mdp
 6811  6812     1   0.1111   0.1111
[ constraints ] ; from mdp
 6811  6813     1   0.1111   0.1111
[ bonds ]
 6811  6814     1    0.153   186188    0.153   186188
[ constraints ] ; from mdp
 6814  6815     1   0.1111   0.1111
[ constraints ] ; from mdp
 6814  6816     1   0.1111   0.1111
[ bonds ]
 6814  6817     1    0.153   186188    0.153   186188
[ constraints ] ; from mdp
 6817  6818     1   0.1111   0.1111
[ constraints ] ; from mdp
 6817  6819     1   0.1111   0.1111
[ bonds ]
 6817  6820     1    0.153   186188    0.153   186188
[ constraints ] ; from mdp
 6820  6821     1   0.1111   0.1111
[ constraints ] ; from mdp
 6820  6822     1   0.1111   0.1111
[ bonds ]
 6820  6823     1    0.153   186188    0.153   186188
[ constraints ] ; from mdp
 6823  6824     1   0.1111   0.1111
[ constraints ] ; from mdp
 6823  6825     1   0.1111   0.1111
[ bonds ]
 6823  6826     1    0.153   186188    0.153   186188
[ constraints ] ; from mdp
 6826  6827     1   0.1111   0.1111
[ constraints ] ; from mdp
 6826  6828     1   0.1111   0.1111
[ bonds ]
 6826  6829     1    0.153   186188    0.153   186188
[ constraints ] ; from mdp
 6829  6830     1   0.1111   0.1111
[ constraints ] ; from mdp
 6829  6831     1   0.1111   0.1111
[ bonds ]
 6829  6832     1    0.153   186188    0.153   186188
[ constraints ] ; from mdp
 6832  6833     1   0.1111   0.1111
[ constraints ] ; from mdp
 6832  6834     1   0.1111   0.1111
[ bonds ]
 6832  6835     1    0.153   186188    0.153   186188
[ constraints ] ; from mdp
 6835  6836     1   0.1111   0.1111
[ constraints ] ; from mdp
 6835  6837     1   0.1111   0.1111
[ bonds ]
 6835  6838     1    0.153   186188    0.153   186188
[ constraints ] ; from mdp
 6838  6839     1   0.1111   0.1111
[ constraints ] ; from mdp
 6838  6840     1   0.1111   0.1111
[ bonds ]
 6838  6841     1    0.153   186188    0.153   186188
[ constraints ] ; from mdp
 6841  6842     1   0.1111   0.1111
[ constraints ] ; from mdp
 6841  6843     1   0.1111   0.1111
[ bonds ]
 6841  6844     1   0.1528   186188   0.1528   186188
[ constraints ] ; from mdp
 6844  6845     1   0.1111   0.1111
[ constraints ] ; from mdp
 6844  6846     1   0.1111   0.1111
[ constraints ] ; from mdp
 6844  6847     1   0.1111   0.1111
[ constraints ] ; from mdp
 6848  6849     1   0.1111   0.1111
[ constraints ] ; from mdp
 6848  6850     1   0.1111   0.1111
[ bonds ]
 6848  6851     1    0.153   186188    0.153   186188
[ constraints ] ; from mdp
 6851  6852     1   0.1111   0.1111
[ constraints ] ; from mdp
 6851  6853     1   0.1111   0.1111
[ bonds ]
 6851  6854     1    0.153   186188    0.153   186188
[ constraints ] ; from mdp
 6854  6855     1   0.1111   0.1111
[ constraints ] ; from mdp
 6854  6856     1   0.1111   0.1111
[ bonds ]
 6854  6857     1    0.153   186188    0.153   186188
[ constraints ] ; from mdp
 6857  6858     1   0.1111   0.1111
[ constraints ] ; from mdp
 6857  6859     1   0.1111   0.1111
[ bonds ]
 6857  6860     1    0.153   186188    0.153   186188
[ constraints ] ; from mdp
 6860  6861     1   0.1111   0.1111
[ constraints ] ; from mdp
 6860  6862     1   0.1111   0.1111
[ bonds ]
 6860  6863     1    0.153   186188    0.153   186188
[ constraints ] ; from mdp
 6863  6864     1   0.1111   0.1111
[ constraints ] ; from mdp
 6863  6865     1   0.1111   0.1111
[ bonds ]
 6863  6866     1    0.153   186188    0.153   186188
[ constraints ] ; from mdp
 6866  6867     1   0.1111   0.1111
[ constraints ] ; from mdp
 6866  6868     1   0.1111   0.1111
[ bonds ]
 6866  6869     1    0.153   186188    0.153   186188
[ constraints ] ; from mdp
 6869  6870     1   0.1111   0.1111
[ constraints ] ; from mdp
 6869  6871     1   0.1111   0.1111
[ bonds ]
 6869  6872     1    0.153   186188    0.153   186188
[ constraints ] ; from mdp
 6872  6873     1   0.1111   0.1111
[ constraints ] ; from mdp
 6872  6874     1   0.1111   0.1111
[ bonds ]
 6872  6875     1    0.153   186188    0.153   186188
[ constraints ] ; from mdp
 6875  6876     1   0.1111   0.1111
[ constraints ] ; from mdp
 6875  6877     1   0.1111   0.1111
[ bonds ]
 6875  6878     1    0.153   186188    0.153   186188
[ constraints ] ; from mdp
 6878  6879     1   0.1111   0.1111
[ constraints ] ; from mdp
 6878  6880     1   0.1111   0.1111
[ bonds ]
 6878  6881     1    0.153   186188    0.153   186188
[ constraints ] ; from mdp
 6881  6882     1   0.1111   0.1111
[ constraints ] ; from mdp
 6881  6883     1   0.1111   0.1111
[ bonds ]
 6881  6884     1    0.153   186188    0.153   186188
[ constraints ] ; from mdp
 6884  6885     1   0.1111   0.1111
[ constraints ] ; from mdp
 6884  6886     1   0.1111   0.1111
[ bonds ]
 6884  6887     1   0.1528   186188   0.1528   186188
[ constraints ] ; from mdp
 6887  6888     1   0.1111   0.1111
[ constraints ] ; from mdp
 6887  6889     1   0.1111   0.1111
[ constraints ] ; from mdp
 6887  6890     1   0.1111   0.1111
[ bonds ]
 6891  6892     1    0.151   179912    0.151   179912
[ bonds ]
 6891  6896     1    0.151   179912    0.151   179912
[ bonds ]
 6891  6900     1    0.151   179912    0.151   179912
[ bonds ]
 6891  6904     1    0.151   179912    0.151   179912
[ constraints ] ; from mdp
 6892  6893     1    0.108    0.108
[ constraints ] ; from mdp
 6892  6894     1    0.108    0.108
[ constraints ] ; from mdp
 6892  6895     1    0.108    0.108
[ constraints ] ; from mdp
 6896  6897     1    0.108    0.108
[ constraints ] ; from mdp
 6896  6898     1    0.108    0.108
[ constraints ] ; from mdp
 6896  6899     1    0.108    0.108
[ constraints ] ; from mdp
 6900  6901     1    0.108    0.108
[ constraints ] ; from mdp
 6900  6902     1    0.108    0.108
[ constraints ] ; from mdp
 6900  6903     1    0.108    0.108
[ constraints ] ; from mdp
 6904  6905     1    0.108    0.108
[ constraints ] ; from mdp
 6904  6906     1    0.108    0.108
[ bonds ]
 6904  6907     1    0.153   186188    0.153   186188
[ constraints ] ; from mdp
 6907  6908     1   0.1111   0.1111
[ constraints ] ; from mdp
 6907  6909     1   0.1111   0.1111
[ bonds ]
 6907  6914     1    0.143   284512    0.143   284512
[ bonds ]
 6910  6911     1    0.148   485344    0.148   485344
[ bonds ]
 6910  6912     1    0.148   485344    0.148   485344
[ bonds ]
 6910  6913     1     0.16   225936     0.16   225936
[ bonds ]
 6910  6914     1     0.16   225936     0.16   225936
[ bonds ]
 6913  6915     1    0.143   284512    0.143   284512
[ constraints ] ; from mdp
 6915  6916     1   0.1111   0.1111
[ constraints ] ; from mdp
 6915  6917     1   0.1111   0.1111
[ bonds ]
 6915  6918     1   0.1538   186188   0.1538   186188
[ constraints ] ; from mdp
 6918  6919     1   0.1111   0.1111
[ bonds ]
 6918  6920     1    0.143   284512    0.143   284512
[ bonds ]
 6918  6926     1   0.1538   186188   0.1538   186188
[ bonds ]
 6920  6921     1   0.1334   125520   0.1334   125520
[ bonds ]
 6921  6922     1    0.122   627600    0.122   627600
[ bonds ]
 6921  6923     1   0.1522   167360   0.1522   167360
[ constraints ] ; from mdp
 6923  6924     1   0.1111   0.1111
[ constraints ] ; from mdp
 6923  6925     1   0.1111   0.1111
[ bonds ]
 6923  6935     1    0.153   186188    0.153   186188
[ constraints ] ; from mdp
 6926  6927     1   0.1111   0.1111
[ constraints ] ; from mdp
 6926  6928     1   0.1111   0.1111
[ bonds ]
 6926  6929     1    0.143   284512    0.143   284512
[ bonds ]
 6929  6930     1   0.1334   125520   0.1334   125520
[ bonds ]
 6930  6931     1    0.122   627600    0.122   627600
[ bonds ]
 6930  6932     1   0.1522   167360   0.1522   167360
[ constraints ] ; from mdp
 6932  6933     1   0.1111   0.1111
[ constraints ] ; from mdp
 6932  6934     1   0.1111   0.1111
[ bonds ]
 6932  6978     1    0.153   186188    0.153   186188
[ constraints ] ; from mdp
 6935  6936     1   0.1111   0.1111
[ constraints ] ; from mdp
 6935  6937     1   0.1111   0.1111
[ bonds ]
 6935  6938     1    0.153   186188    0.153   186188
[ constraints ] ; from mdp
 6938  6939     1   0.1111   0.1111
[ constraints ] ; from mdp
 6938  6940     1   0.1111   0.1111
[ bonds ]
 6938  6941     1    0.153   186188    0.153   186188
[ constraints ] ; from mdp
 6941  6942     1   0.1111   0.1111
[ constraints ] ; from mdp
 6941  6943     1   0.1111   0.1111
[ bonds ]
 6941  6944     1    0.153   186188    0.153   186188
[ constraints ] ; from mdp
 6944  6945     1   0.1111   0.1111
[ constraints ] ; from mdp
 6944  6946     1   0.1111   0.1111
[ bonds ]
 6944  6947     1    0.153   186188    0.153   186188
[ constraints ] ; from mdp
 6947  6948     1   0.1111   0.1111
[ constraints ] ; from mdp
 6947  6949     1   0.1111   0.1111
[ bonds ]
 6947  6950     1    0.153   186188    0.153   186188
[ constraints ] ; from mdp
 6950  6951     1   0.1111   0.1111
[ constraints ] ; from mdp
 6950  6952     1   0.1111   0.1111
[ bonds ]
 6950  6953     1    0.153   186188    0.153   186188
[ constraints ] ; from mdp
 6953  6954     1   0.1111   0.1111
[ constraints ] ; from mdp
 6953  6955     1   0.1111   0.1111
[ bonds ]
 6953  6956     1    0.153   186188    0.153   186188
[ constraints ] ; from mdp
 6956  6957     1   0.1111   0.1111
[ constraints ] ; from mdp
 6956  6958     1   0.1111   0.1111
[ bonds ]
 6956  6959     1    0.153   186188    0.153   186188
[ constraints ] ; from mdp
 6959  6960     1   0.1111   0.1111
[ constraints ] ; from mdp
 6959  6961     1   0.1111   0.1111
[ bonds ]
 6959  6962     1    0.153   186188    0.153   186188
[ constraints ] ; from mdp
 6962  6963     1   0.1111   0.1111
[ constraints ] ; from mdp
 6962  6964     1   0.1111   0.1111
[ bonds ]
 6962  6965     1    0.153   186188    0.153   186188
[ constraints ] ; from mdp
 6965  6966     1   0.1111   0.1111
[ constraints ] ; from mdp
 6965  6967     1   0.1111   0.1111
[ bonds ]
 6965  6968     1    0.153   186188    0.153   186188
[ constraints ] ; from mdp
 6968  6969     1   0.1111   0.1111
[ constraints ] ; from mdp
 6968  6970     1   0.1111   0.1111
[ bonds ]
 6968  6971     1    0.153   186188    0.153   186188
[ constraints ] ; from mdp
 6971  6972     1   0.1111   0.1111
[ constraints ] ; from mdp
 6971  6973     1   0.1111   0.1111
[ bonds ]
 6971  6974     1   0.1528   186188   0.1528   186188
[ constraints ] ; from mdp
 6974  6975     1   0.1111   0.1111
[ constraints ] ; from mdp
 6974  6976     1   0.1111   0.1111
[ constraints ] ; from mdp
 6974  6977     1   0.1111   0.1111
[ constraints ] ; from mdp
 6978  6979     1   0.1111   0.1111
[ constraints ] ; from mdp
 6978  6980     1   0.1111   0.1111
[ bonds ]
 6978  6981     1    0.153   186188    0.153   186188
[ constraints ] ; from mdp
 6981  6982     1   0.1111   0.1111
[ constraints ] ; from mdp
 6981  6983     1   0.1111   0.1111
[ bonds ]
 6981  6984     1    0.153   186188    0.153   186188
[ constraints ] ; from mdp
 6984  6985     1   0.1111   0.1111
[ constraints ] ; from mdp
 6984  6986     1   0.1111   0.1111
[ bonds ]
 6984  6987     1    0.153   186188    0.153   186188
[ constraints ] ; from mdp
 6987  6988     1   0.1111   0.1111
[ constraints ] ; from mdp
 6987  6989     1   0.1111   0.1111
[ bonds ]
 6987  6990     1    0.153   186188    0.153   186188
[ constraints ] ; from mdp
 6990  6991     1   0.1111   0.1111
[ constraints ] ; from mdp
 6990  6992     1   0.1111   0.1111
[ bonds ]
 6990  6993     1    0.153   186188    0.153   186188
[ constraints ] ; from mdp
 6993  6994     1   0.1111   0.1111
[ constraints ] ; from mdp
 6993  6995     1   0.1111   0.1111
[ bonds ]
 6993  6996     1    0.153   186188    0.153   186188
[ constraints ] ; from mdp
 6996  6997     1   0.1111   0.1111
[ constraints ] ; from mdp
 6996  6998     1   0.1111   0.1111
[ bonds ]
 6996  6999     1    0.153   186188    0.153   186188
[ constraints ] ; from mdp
 6999  7000     1   0.1111   0.1111
[ constraints ] ; from mdp
 6999  7001     1   0.1111   0.1111
[ bonds ]
 6999  7002     1    0.153   186188    0.153   186188
[ constraints ] ; from mdp
 7002  7003     1   0.1111   0.1111
[ constraints ] ; from mdp
 7002  7004     1   0.1111   0.1111
[ bonds ]
 7002  7005     1    0.153   186188    0.153   186188
[ constraints ] ; from mdp
 7005  7006     1   0.1111   0.1111
[ constraints ] ; from mdp
 7005  7007     1   0.1111   0.1111
[ bonds ]
 7005  7008     1    0.153   186188    0.153   186188
[ constraints ] ; from mdp
 7008  7009     1   0.1111   0.1111
[ constraints ] ; from mdp
 7008  7010     1   0.1111   0.1111
[ bonds ]
 7008  7011     1    0.153   186188    0.153   186188
[ constraints ] ; from mdp
 7011  7012     1   0.1111   0.1111
[ constraints ] ; from mdp
 7011  7013     1   0.1111   0.1111
[ bonds ]
 7011  7014     1    0.153   186188    0.153   186188
[ constraints ] ; from mdp
 7014  7015     1   0.1111   0.1111
[ constraints ] ; from mdp
 7014  7016     1   0.1111   0.1111
[ bonds ]
 7014  7017     1   0.1528   186188   0.1528   186188
[ constraints ] ; from mdp
 7017  7018     1   0.1111   0.1111
[ constraints ] ; from mdp
 7017  7019     1   0.1111   0.1111
[ constraints ] ; from mdp
 7017  7020     1   0.1111   0.1111
[ bonds ]
 7021  7022     1    0.151   179912    0.151   179912
[ bonds ]
 7021  7026     1    0.151   179912    0.151   179912
[ bonds ]
 7021  7030     1    0.151   179912    0.151   179912
[ bonds ]
 7021  7034     1    0.151   179912    0.151   179912
[ constraints ] ; from mdp
 7022  7023     1    0.108    0.108
[ constraints ] ; from mdp
 7022  7024     1    0.108    0.108
[ constraints ] ; from mdp
 7022  7025     1    0.108    0.108
[ constraints ] ; from mdp
 7026  7027     1    0.108    0.108
[ constraints ] ; from mdp
 7026  7028     1    0.108    0.108
[ constraints ] ; from mdp
 7026  7029     1    0.108    0.108
[ constraints ] ; from mdp
 7030  7031     1    0.108    0.108
[ constraints ] ; from mdp
 7030  7032     1    0.108    0.108
[ constraints ] ; from mdp
 7030  7033     1    0.108    0.108
[ constraints ] ; from mdp
 7034  7035     1    0.108    0.108
[ constraints ] ; from mdp
 7034  7036     1    0.108    0.108
[ bonds ]
 7034  7037     1    0.153   186188    0.153   186188
[ constraints ] ; from mdp
 7037  7038     1   0.1111   0.1111
[ constraints ] ; from mdp
 7037  7039     1   0.1111   0.1111
[ bonds ]
 7037  7044     1    0.143   284512    0.143   284512
[ bonds ]
 7040  7041     1    0.148   485344    0.148   485344
[ bonds ]
 7040  7042     1    0.148   485344    0.148   485344
[ bonds ]
 7040  7043     1     0.16   225936     0.16   225936
[ bonds ]
 7040  7044     1     0.16   225936     0.16   225936
[ bonds ]
 7043  7045     1    0.143   284512    0.143   284512
[ constraints ] ; from mdp
 7045  7046     1   0.1111   0.1111
[ constraints ] ; from mdp
 7045  7047     1   0.1111   0.1111
[ bonds ]
 7045  7048     1   0.1538   186188   0.1538   186188
[ constraints ] ; from mdp
 7048  7049     1   0.1111   0.1111
[ bonds ]
 7048  7050     1    0.143   284512    0.143   284512
[ bonds ]
 7048  7056     1   0.1538   186188   0.1538   186188
[ bonds ]
 7050  7051     1   0.1334   125520   0.1334   125520
[ bonds ]
 7051  7052     1    0.122   627600    0.122   627600
[ bonds ]
 7051  7053     1   0.1522   167360   0.1522   167360
[ constraints ] ; from mdp
 7053  7054     1   0.1111   0.1111
[ constraints ] ; from mdp
 7053  7055     1   0.1111   0.1111
[ bonds ]
 7053  7065     1    0.153   186188    0.153   186188
[ constraints ] ; from mdp
 7056  7057     1   0.1111   0.1111
[ constraints ] ; from mdp
 7056  7058     1   0.1111   0.1111
[ bonds ]
 7056  7059     1    0.143   284512    0.143   284512
[ bonds ]
 7059  7060     1   0.1334   125520   0.1334   125520
[ bonds ]
 7060  7061     1    0.122   627600    0.122   627600
[ bonds ]
 7060  7062     1   0.1522   167360   0.1522   167360
[ constraints ] ; from mdp
 7062  7063     1   0.1111   0.1111
[ constraints ] ; from mdp
 7062  7064     1   0.1111   0.1111
[ bonds ]
 7062  7108     1    0.153   186188    0.153   186188
[ constraints ] ; from mdp
 7065  7066     1   0.1111   0.1111
[ constraints ] ; from mdp
 7065  7067     1   0.1111   0.1111
[ bonds ]
 7065  7068     1    0.153   186188    0.153   186188
[ constraints ] ; from mdp
 7068  7069     1   0.1111   0.1111
[ constraints ] ; from mdp
 7068  7070     1   0.1111   0.1111
[ bonds ]
 7068  7071     1    0.153   186188    0.153   186188
[ constraints ] ; from mdp
 7071  7072     1   0.1111   0.1111
[ constraints ] ; from mdp
 7071  7073     1   0.1111   0.1111
[ bonds ]
 7071  7074     1    0.153   186188    0.153   186188
[ constraints ] ; from mdp
 7074  7075     1   0.1111   0.1111
[ constraints ] ; from mdp
 7074  7076     1   0.1111   0.1111
[ bonds ]
 7074  7077     1    0.153   186188    0.153   186188
[ constraints ] ; from mdp
 7077  7078     1   0.1111   0.1111
[ constraints ] ; from mdp
 7077  7079     1   0.1111   0.1111
[ bonds ]
 7077  7080     1    0.153   186188    0.153   186188
[ constraints ] ; from mdp
 7080  7081     1   0.1111   0.1111
[ constraints ] ; from mdp
 7080  7082     1   0.1111   0.1111
[ bonds ]
 7080  7083     1    0.153   186188    0.153   186188
[ constraints ] ; from mdp
 7083  7084     1   0.1111   0.1111
[ constraints ] ; from mdp
 7083  7085     1   0.1111   0.1111
[ bonds ]
 7083  7086     1    0.153   186188    0.153   186188
[ constraints ] ; from mdp
 7086  7087     1   0.1111   0.1111
[ constraints ] ; from mdp
 7086  7088     1   0.1111   0.1111
[ bonds ]
 7086  7089     1    0.153   186188    0.153   186188
[ constraints ] ; from mdp
 7089  7090     1   0.1111   0.1111
[ constraints ] ; from mdp
 7089  7091     1   0.1111   0.1111
[ bonds ]
 7089  7092     1    0.153   186188    0.153   186188
[ constraints ] ; from mdp
 7092  7093     1   0.1111   0.1111
[ constraints ] ; from mdp
 7092  7094     1   0.1111   0.1111
[ bonds ]
 7092  7095     1    0.153   186188    0.153   186188
[ constraints ] ; from mdp
 7095  7096     1   0.1111   0.1111
[ constraints ] ; from mdp
 7095  7097     1   0.1111   0.1111
[ bonds ]
 7095  7098     1    0.153   186188    0.153   186188
[ constraints ] ; from mdp
 7098  7099     1   0.1111   0.1111
[ constraints ] ; from mdp
 7098  7100     1   0.1111   0.1111
[ bonds ]
 7098  7101     1    0.153   186188    0.153   186188
[ constraints ] ; from mdp
 7101  7102     1   0.1111   0.1111
[ constraints ] ; from mdp
 7101  7103     1   0.1111   0.1111
[ bonds ]
 7101  7104     1   0.1528   186188   0.1528   186188
[ constraints ] ; from mdp
 7104  7105     1   0.1111   0.1111
[ constraints ] ; from mdp
 7104  7106     1   0.1111   0.1111
[ constraints ] ; from mdp
 7104  7107     1   0.1111   0.1111
[ constraints ] ; from mdp
 7108  7109     1   0.1111   0.1111
[ constraints ] ; from mdp
 7108  7110     1   0.1111   0.1111
[ bonds ]
 7108  7111     1    0.153   186188    0.153   186188
[ constraints ] ; from mdp
 7111  7112     1   0.1111   0.1111
[ constraints ] ; from mdp
 7111  7113     1   0.1111   0.1111
[ bonds ]
 7111  7114     1    0.153   186188    0.153   186188
[ constraints ] ; from mdp
 7114  7115     1   0.1111   0.1111
[ constraints ] ; from mdp
 7114  7116     1   0.1111   0.1111
[ bonds ]
 7114  7117     1    0.153   186188    0.153   186188
[ constraints ] ; from mdp
 7117  7118     1   0.1111   0.1111
[ constraints ] ; from mdp
 7117  7119     1   0.1111   0.1111
[ bonds ]
 7117  7120     1    0.153   186188    0.153   186188
[ constraints ] ; from mdp
 7120  7121     1   0.1111   0.1111
[ constraints ] ; from mdp
 7120  7122     1   0.1111   0.1111
[ bonds ]
 7120  7123     1    0.153   186188    0.153   186188
[ constraints ] ; from mdp
 7123  7124     1   0.1111   0.1111
[ constraints ] ; from mdp
 7123  7125     1   0.1111   0.1111
[ bonds ]
 7123  7126     1    0.153   186188    0.153   186188
[ constraints ] ; from mdp
 7126  7127     1   0.1111   0.1111
[ constraints ] ; from mdp
 7126  7128     1   0.1111   0.1111
[ bonds ]
 7126  7129     1    0.153   186188    0.153   186188
[ constraints ] ; from mdp
 7129  7130     1   0.1111   0.1111
[ constraints ] ; from mdp
 7129  7131     1   0.1111   0.1111
[ bonds ]
 7129  7132     1    0.153   186188    0.153   186188
[ constraints ] ; from mdp
 7132  7133     1   0.1111   0.1111
[ constraints ] ; from mdp
 7132  7134     1   0.1111   0.1111
[ bonds ]
 7132  7135     1    0.153   186188    0.153   186188
[ constraints ] ; from mdp
 7135  7136     1   0.1111   0.1111
[ constraints ] ; from mdp
 7135  7137     1   0.1111   0.1111
[ bonds ]
 7135  7138     1    0.153   186188    0.153   186188
[ constraints ] ; from mdp
 7138  7139     1   0.1111   0.1111
[ constraints ] ; from mdp
 7138  7140     1   0.1111   0.1111
[ bonds ]
 7138  7141     1    0.153   186188    0.153   186188
[ constraints ] ; from mdp
 7141  7142     1   0.1111   0.1111
[ constraints ] ; from mdp
 7141  7143     1   0.1111   0.1111
[ bonds ]
 7141  7144     1    0.153   186188    0.153   186188
[ constraints ] ; from mdp
 7144  7145     1   0.1111   0.1111
[ constraints ] ; from mdp
 7144  7146     1   0.1111   0.1111
[ bonds ]
 7144  7147     1   0.1528   186188   0.1528   186188
[ constraints ] ; from mdp
 7147  7148     1   0.1111   0.1111
[ constraints ] ; from mdp
 7147  7149     1   0.1111   0.1111
[ constraints ] ; from mdp
 7147  7150     1   0.1111   0.1111
[ bonds ]
 7151  7152     1    0.151   179912    0.151   179912
[ bonds ]
 7151  7156     1    0.151   179912    0.151   179912
[ bonds ]
 7151  7160     1    0.151   179912    0.151   179912
[ bonds ]
 7151  7164     1    0.151   179912    0.151   179912
[ constraints ] ; from mdp
 7152  7153     1    0.108    0.108
[ constraints ] ; from mdp
 7152  7154     1    0.108    0.108
[ constraints ] ; from mdp
 7152  7155     1    0.108    0.108
[ constraints ] ; from mdp
 7156  7157     1    0.108    0.108
[ constraints ] ; from mdp
 7156  7158     1    0.108    0.108
[ constraints ] ; from mdp
 7156  7159     1    0.108    0.108
[ constraints ] ; from mdp
 7160  7161     1    0.108    0.108
[ constraints ] ; from mdp
 7160  7162     1    0.108    0.108
[ constraints ] ; from mdp
 7160  7163     1    0.108    0.108
[ constraints ] ; from mdp
 7164  7165     1    0.108    0.108
[ constraints ] ; from mdp
 7164  7166     1    0.108    0.108
[ bonds ]
 7164  7167     1    0.153   186188    0.153   186188
[ constraints ] ; from mdp
 7167  7168     1   0.1111   0.1111
[ constraints ] ; from mdp
 7167  7169     1   0.1111   0.1111
[ bonds ]
 7167  7174     1    0.143   284512    0.143   284512
[ bonds ]
 7170  7171     1    0.148   485344    0.148   485344
[ bonds ]
 7170  7172     1    0.148   485344    0.148   485344
[ bonds ]
 7170  7173     1     0.16   225936     0.16   225936
[ bonds ]
 7170  7174     1     0.16   225936     0.16   225936
[ bonds ]
 7173  7175     1    0.143   284512    0.143   284512
[ constraints ] ; from mdp
 7175  7176     1   0.1111   0.1111
[ constraints ] ; from mdp
 7175  7177     1   0.1111   0.1111
[ bonds ]
 7175  7178     1   0.1538   186188   0.1538   186188
[ constraints ] ; from mdp
 7178  7179     1   0.1111   0.1111
[ bonds ]
 7178  7180     1    0.143   284512    0.143   284512
[ bonds ]
 7178  7186     1   0.1538   186188   0.1538   186188
[ bonds ]
 7180  7181     1   0.1334   125520   0.1334   125520
[ bonds ]
 7181  7182     1    0.122   627600    0.122   627600
[ bonds ]
 7181  7183     1   0.1522   167360   0.1522   167360
[ constraints ] ; from mdp
 7183  7184     1   0.1111   0.1111
[ constraints ] ; from mdp
 7183  7185     1   0.1111   0.1111
[ bonds ]
 7183  7195     1    0.153   186188    0.153   186188
[ constraints ] ; from mdp
 7186  7187     1   0.1111   0.1111
[ constraints ] ; from mdp
 7186  7188     1   0.1111   0.1111
[ bonds ]
 7186  7189     1    0.143   284512    0.143   284512
[ bonds ]
 7189  7190     1   0.1334   125520   0.1334   125520
[ bonds ]
 7190  7191     1    0.122   627600    0.122   627600
[ bonds ]
 7190  7192     1   0.1522   167360   0.1522   167360
[ constraints ] ; from mdp
 7192  7193     1   0.1111   0.1111
[ constraints ] ; from mdp
 7192  7194     1   0.1111   0.1111
[ bonds ]
 7192  7238     1    0.153   186188    0.153   186188
[ constraints ] ; from mdp
 7195  7196     1   0.1111   0.1111
[ constraints ] ; from mdp
 7195  7197     1   0.1111   0.1111
[ bonds ]
 7195  7198     1    0.153   186188    0.153   186188
[ constraints ] ; from mdp
 7198  7199     1   0.1111   0.1111
[ constraints ] ; from mdp
 7198  7200     1   0.1111   0.1111
[ bonds ]
 7198  7201     1    0.153   186188    0.153   186188
[ constraints ] ; from mdp
 7201  7202     1   0.1111   0.1111
[ constraints ] ; from mdp
 7201  7203     1   0.1111   0.1111
[ bonds ]
 7201  7204     1    0.153   186188    0.153   186188
[ constraints ] ; from mdp
 7204  7205     1   0.1111   0.1111
[ constraints ] ; from mdp
 7204  7206     1   0.1111   0.1111
[ bonds ]
 7204  7207     1    0.153   186188    0.153   186188
[ constraints ] ; from mdp
 7207  7208     1   0.1111   0.1111
[ constraints ] ; from mdp
 7207  7209     1   0.1111   0.1111
[ bonds ]
 7207  7210     1    0.153   186188    0.153   186188
[ constraints ] ; from mdp
 7210  7211     1   0.1111   0.1111
[ constraints ] ; from mdp
 7210  7212     1   0.1111   0.1111
[ bonds ]
 7210  7213     1    0.153   186188    0.153   186188
[ constraints ] ; from mdp
 7213  7214     1   0.1111   0.1111
[ constraints ] ; from mdp
 7213  7215     1   0.1111   0.1111
[ bonds ]
 7213  7216     1    0.153   186188    0.153   186188
[ constraints ] ; from mdp
 7216  7217     1   0.1111   0.1111
[ constraints ] ; from mdp
 7216  7218     1   0.1111   0.1111
[ bonds ]
 7216  7219     1    0.153   186188    0.153   186188
[ constraints ] ; from mdp
 7219  7220     1   0.1111   0.1111
[ constraints ] ; from mdp
 7219  7221     1   0.1111   0.1111
[ bonds ]
 7219  7222     1    0.153   186188    0.153   186188
[ constraints ] ; from mdp
 7222  7223     1   0.1111   0.1111
[ constraints ] ; from mdp
 7222  7224     1   0.1111   0.1111
[ bonds ]
 7222  7225     1    0.153   186188    0.153   186188
[ constraints ] ; from mdp
 7225  7226     1   0.1111   0.1111
[ constraints ] ; from mdp
 7225  7227     1   0.1111   0.1111
[ bonds ]
 7225  7228     1    0.153   186188    0.153   186188
[ constraints ] ; from mdp
 7228  7229     1   0.1111   0.1111
[ constraints ] ; from mdp
 7228  7230     1   0.1111   0.1111
[ bonds ]
 7228  7231     1    0.153   186188    0.153   186188
[ constraints ] ; from mdp
 7231  7232     1   0.1111   0.1111
[ constraints ] ; from mdp
 7231  7233     1   0.1111   0.1111
[ bonds ]
 7231  7234     1   0.1528   186188   0.1528   186188
[ constraints ] ; from mdp
 7234  7235     1   0.1111   0.1111
[ constraints ] ; from mdp
 7234  7236     1   0.1111   0.1111
[ constraints ] ; from mdp
 7234  7237     1   0.1111   0.1111
[ constraints ] ; from mdp
 7238  7239     1   0.1111   0.1111
[ constraints ] ; from mdp
 7238  7240     1   0.1111   0.1111
[ bonds ]
 7238  7241     1    0.153   186188    0.153   186188
[ constraints ] ; from mdp
 7241  7242     1   0.1111   0.1111
[ constraints ] ; from mdp
 7241  7243     1   0.1111   0.1111
[ bonds ]
 7241  7244     1    0.153   186188    0.153   186188
[ constraints ] ; from mdp
 7244  7245     1   0.1111   0.1111
[ constraints ] ; from mdp
 7244  7246     1   0.1111   0.1111
[ bonds ]
 7244  7247     1    0.153   186188    0.153   186188
[ constraints ] ; from mdp
 7247  7248     1   0.1111   0.1111
[ constraints ] ; from mdp
 7247  7249     1   0.1111   0.1111
[ bonds ]
 7247  7250     1    0.153   186188    0.153   186188
[ constraints ] ; from mdp
 7250  7251     1   0.1111   0.1111
[ constraints ] ; from mdp
 7250  7252     1   0.1111   0.1111
[ bonds ]
 7250  7253     1    0.153   186188    0.153   186188
[ constraints ] ; from mdp
 7253  7254     1   0.1111   0.1111
[ constraints ] ; from mdp
 7253  7255     1   0.1111   0.1111
[ bonds ]
 7253  7256     1    0.153   186188    0.153   186188
[ constraints ] ; from mdp
 7256  7257     1   0.1111   0.1111
[ constraints ] ; from mdp
 7256  7258     1   0.1111   0.1111
[ bonds ]
 7256  7259     1    0.153   186188    0.153   186188
[ constraints ] ; from mdp
 7259  7260     1   0.1111   0.1111
[ constraints ] ; from mdp
 7259  7261     1   0.1111   0.1111
[ bonds ]
 7259  7262     1    0.153   186188    0.153   186188
[ constraints ] ; from mdp
 7262  7263     1   0.1111   0.1111
[ constraints ] ; from mdp
 7262  7264     1   0.1111   0.1111
[ bonds ]
 7262  7265     1    0.153   186188    0.153   186188
[ constraints ] ; from mdp
 7265  7266     1   0.1111   0.1111
[ constraints ] ; from mdp
 7265  7267     1   0.1111   0.1111
[ bonds ]
 7265  7268     1    0.153   186188    0.153   186188
[ constraints ] ; from mdp
 7268  7269     1   0.1111   0.1111
[ constraints ] ; from mdp
 7268  7270     1   0.1111   0.1111
[ bonds ]
 7268  7271     1    0.153   186188    0.153   186188
[ constraints ] ; from mdp
 7271  7272     1   0.1111   0.1111
[ constraints ] ; from mdp
 7271  7273     1   0.1111   0.1111
[ bonds ]
 7271  7274     1    0.153   186188    0.153   186188
[ constraints ] ; from mdp
 7274  7275     1   0.1111   0.1111
[ constraints ] ; from mdp
 7274  7276     1   0.1111   0.1111
[ bonds ]
 7274  7277     1   0.1528   186188   0.1528   186188
[ constraints ] ; from mdp
 7277  7278     1   0.1111   0.1111
[ constraints ] ; from mdp
 7277  7279     1   0.1111   0.1111
[ constraints ] ; from mdp
 7277  7280     1   0.1111   0.1111
[ bonds ]
 7281  7282     1    0.151   179912    0.151   179912
[ bonds ]
 7281  7286     1    0.151   179912    0.151   179912
[ bonds ]
 7281  7290     1    0.151   179912    0.151   179912
[ bonds ]
 7281  7294     1    0.151   179912    0.151   179912
[ constraints ] ; from mdp
 7282  7283     1    0.108    0.108
[ constraints ] ; from mdp
 7282  7284     1    0.108    0.108
[ constraints ] ; from mdp
 7282  7285     1    0.108    0.108
[ constraints ] ; from mdp
 7286  7287     1    0.108    0.108
[ constraints ] ; from mdp
 7286  7288     1    0.108    0.108
[ constraints ] ; from mdp
 7286  7289     1    0.108    0.108
[ constraints ] ; from mdp
 7290  7291     1    0.108    0.108
[ constraints ] ; from mdp
 7290  7292     1    0.108    0.108
[ constraints ] ; from mdp
 7290  7293     1    0.108    0.108
[ constraints ] ; from mdp
 7294  7295     1    0.108    0.108
[ constraints ] ; from mdp
 7294  7296     1    0.108    0.108
[ bonds ]
 7294  7297     1    0.153   186188    0.153   186188
[ constraints ] ; from mdp
 7297  7298     1   0.1111   0.1111
[ constraints ] ; from mdp
 7297  7299     1   0.1111   0.1111
[ bonds ]
 7297  7304     1    0.143   284512    0.143   284512
[ bonds ]
 7300  7301     1    0.148   485344    0.148   485344
[ bonds ]
 7300  7302     1    0.148   485344    0.148   485344
[ bonds ]
 7300  7303     1     0.16   225936     0.16   225936
[ bonds ]
 7300  7304     1     0.16   225936     0.16   225936
[ bonds ]
 7303  7305     1    0.143   284512    0.143   284512
[ constraints ] ; from mdp
 7305  7306     1   0.1111   0.1111
[ constraints ] ; from mdp
 7305  7307     1   0.1111   0.1111
[ bonds ]
 7305  7308     1   0.1538   186188   0.1538   186188
[ constraints ] ; from mdp
 7308  7309     1   0.1111   0.1111
[ bonds ]
 7308  7310     1    0.143   284512    0.143   284512
[ bonds ]
 7308  7316     1   0.1538   186188   0.1538   186188
[ bonds ]
 7310  7311     1   0.1334   125520   0.1334   125520
[ bonds ]
 7311  7312     1    0.122   627600    0.122   627600
[ bonds ]
 7311  7313     1   0.1522   167360   0.1522   167360
[ constraints ] ; from mdp
 7313  7314     1   0.1111   0.1111
[ constraints ] ; from mdp
 7313  7315     1   0.1111   0.1111
[ bonds ]
 7313  7325     1    0.153   186188    0.153   186188
[ constraints ] ; from mdp
 7316  7317     1   0.1111   0.1111
[ constraints ] ; from mdp
 7316  7318     1   0.1111   0.1111
[ bonds ]
 7316  7319     1    0.143   284512    0.143   284512
[ bonds ]
 7319  7320     1   0.1334   125520   0.1334   125520
[ bonds ]
 7320  7321     1    0.122   627600    0.122   627600
[ bonds ]
 7320  7322     1   0.1522   167360   0.1522   167360
[ constraints ] ; from mdp
 7322  7323     1   0.1111   0.1111
[ constraints ] ; from mdp
 7322  7324     1   0.1111   0.1111
[ bonds ]
 7322  7368     1    0.153   186188    0.153   186188
[ constraints ] ; from mdp
 7325  7326     1   0.1111   0.1111
[ constraints ] ; from mdp
 7325  7327     1   0.1111   0.1111
[ bonds ]
 7325  7328     1    0.153   186188    0.153   186188
[ constraints ] ; from mdp
 7328  7329     1   0.1111   0.1111
[ constraints ] ; from mdp
 7328  7330     1   0.1111   0.1111
[ bonds ]
 7328  7331     1    0.153   186188    0.153   186188
[ constraints ] ; from mdp
 7331  7332     1   0.1111   0.1111
[ constraints ] ; from mdp
 7331  7333     1   0.1111   0.1111
[ bonds ]
 7331  7334     1    0.153   186188    0.153   186188
[ constraints ] ; from mdp
 7334  7335     1   0.1111   0.1111
[ constraints ] ; from mdp
 7334  7336     1   0.1111   0.1111
[ bonds ]
 7334  7337     1    0.153   186188    0.153   186188
[ constraints ] ; from mdp
 7337  7338     1   0.1111   0.1111
[ constraints ] ; from mdp
 7337  7339     1   0.1111   0.1111
[ bonds ]
 7337  7340     1    0.153   186188    0.153   186188
[ constraints ] ; from mdp
 7340  7341     1   0.1111   0.1111
[ constraints ] ; from mdp
 7340  7342     1   0.1111   0.1111
[ bonds ]
 7340  7343     1    0.153   186188    0.153   186188
[ constraints ] ; from mdp
 7343  7344     1   0.1111   0.1111
[ constraints ] ; from mdp
 7343  7345     1   0.1111   0.1111
[ bonds ]
 7343  7346     1    0.153   186188    0.153   186188
[ constraints ] ; from mdp
 7346  7347     1   0.1111   0.1111
[ constraints ] ; from mdp
 7346  7348     1   0.1111   0.1111
[ bonds ]
 7346  7349     1    0.153   186188    0.153   186188
[ constraints ] ; from mdp
 7349  7350     1   0.1111   0.1111
[ constraints ] ; from mdp
 7349  7351     1   0.1111   0.1111
[ bonds ]
 7349  7352     1    0.153   186188    0.153   186188
[ constraints ] ; from mdp
 7352  7353     1   0.1111   0.1111
[ constraints ] ; from mdp
 7352  7354     1   0.1111   0.1111
[ bonds ]
 7352  7355     1    0.153   186188    0.153   186188
[ constraints ] ; from mdp
 7355  7356     1   0.1111   0.1111
[ constraints ] ; from mdp
 7355  7357     1   0.1111   0.1111
[ bonds ]
 7355  7358     1    0.153   186188    0.153   186188
[ constraints ] ; from mdp
 7358  7359     1   0.1111   0.1111
[ constraints ] ; from mdp
 7358  7360     1   0.1111   0.1111
[ bonds ]
 7358  7361     1    0.153   186188    0.153   186188
[ constraints ] ; from mdp
 7361  7362     1   0.1111   0.1111
[ constraints ] ; from mdp
 7361  7363     1   0.1111   0.1111
[ bonds ]
 7361  7364     1   0.1528   186188   0.1528   186188
[ constraints ] ; from mdp
 7364  7365     1   0.1111   0.1111
[ constraints ] ; from mdp
 7364  7366     1   0.1111   0.1111
[ constraints ] ; from mdp
 7364  7367     1   0.1111   0.1111
[ constraints ] ; from mdp
 7368  7369     1   0.1111   0.1111
[ constraints ] ; from mdp
 7368  7370     1   0.1111   0.1111
[ bonds ]
 7368  7371     1    0.153   186188    0.153   186188
[ constraints ] ; from mdp
 7371  7372     1   0.1111   0.1111
[ constraints ] ; from mdp
 7371  7373     1   0.1111   0.1111
[ bonds ]
 7371  7374     1    0.153   186188    0.153   186188
[ constraints ] ; from mdp
 7374  7375     1   0.1111   0.1111
[ constraints ] ; from mdp
 7374  7376     1   0.1111   0.1111
[ bonds ]
 7374  7377     1    0.153   186188    0.153   186188
[ constraints ] ; from mdp
 7377  7378     1   0.1111   0.1111
[ constraints ] ; from mdp
 7377  7379     1   0.1111   0.1111
[ bonds ]
 7377  7380     1    0.153   186188    0.153   186188
[ constraints ] ; from mdp
 7380  7381     1   0.1111   0.1111
[ constraints ] ; from mdp
 7380  7382     1   0.1111   0.1111
[ bonds ]
 7380  7383     1    0.153   186188    0.153   186188
[ constraints ] ; from mdp
 7383  7384     1   0.1111   0.1111
[ constraints ] ; from mdp
 7383  7385     1   0.1111   0.1111
[ bonds ]
 7383  7386     1    0.153   186188    0.153   186188
[ constraints ] ; from mdp
 7386  7387     1   0.1111   0.1111
[ constraints ] ; from mdp
 7386  7388     1   0.1111   0.1111
[ bonds ]
 7386  7389     1    0.153   186188    0.153   186188
[ constraints ] ; from mdp
 7389  7390     1   0.1111   0.1111
[ constraints ] ; from mdp
 7389  7391     1   0.1111   0.1111
[ bonds ]
 7389  7392     1    0.153   186188    0.153   186188
[ constraints ] ; from mdp
 7392  7393     1   0.1111   0.1111
[ constraints ] ; from mdp
 7392  7394     1   0.1111   0.1111
[ bonds ]
 7392  7395     1    0.153   186188    0.153   186188
[ constraints ] ; from mdp
 7395  7396     1   0.1111   0.1111
[ constraints ] ; from mdp
 7395  7397     1   0.1111   0.1111
[ bonds ]
 7395  7398     1    0.153   186188    0.153   186188
[ constraints ] ; from mdp
 7398  7399     1   0.1111   0.1111
[ constraints ] ; from mdp
 7398  7400     1   0.1111   0.1111
[ bonds ]
 7398  7401     1    0.153   186188    0.153   186188
[ constraints ] ; from mdp
 7401  7402     1   0.1111   0.1111
[ constraints ] ; from mdp
 7401  7403     1   0.1111   0.1111
[ bonds ]
 7401  7404     1    0.153   186188    0.153   186188
[ constraints ] ; from mdp
 7404  7405     1   0.1111   0.1111
[ constraints ] ; from mdp
 7404  7406     1   0.1111   0.1111
[ bonds ]
 7404  7407     1   0.1528   186188   0.1528   186188
[ constraints ] ; from mdp
 7407  7408     1   0.1111   0.1111
[ constraints ] ; from mdp
 7407  7409     1   0.1111   0.1111
[ constraints ] ; from mdp
 7407  7410     1   0.1111   0.1111
[ bonds ]
 7411  7412     1    0.151   179912    0.151   179912
[ bonds ]
 7411  7416     1    0.151   179912    0.151   179912
[ bonds ]
 7411  7420     1    0.151   179912    0.151   179912
[ bonds ]
 7411  7424     1    0.151   179912    0.151   179912
[ constraints ] ; from mdp
 7412  7413     1    0.108    0.108
[ constraints ] ; from mdp
 7412  7414     1    0.108    0.108
[ constraints ] ; from mdp
 7412  7415     1    0.108    0.108
[ constraints ] ; from mdp
 7416  7417     1    0.108    0.108
[ constraints ] ; from mdp
 7416  7418     1    0.108    0.108
[ constraints ] ; from mdp
 7416  7419     1    0.108    0.108
[ constraints ] ; from mdp
 7420  7421     1    0.108    0.108
[ constraints ] ; from mdp
 7420  7422     1    0.108    0.108
[ constraints ] ; from mdp
 7420  7423     1    0.108    0.108
[ constraints ] ; from mdp
 7424  7425     1    0.108    0.108
[ constraints ] ; from mdp
 7424  7426     1    0.108    0.108
[ bonds ]
 7424  7427     1    0.153   186188    0.153   186188
[ constraints ] ; from mdp
 7427  7428     1   0.1111   0.1111
[ constraints ] ; from mdp
 7427  7429     1   0.1111   0.1111
[ bonds ]
 7427  7434     1    0.143   284512    0.143   284512
[ bonds ]
 7430  7431     1    0.148   485344    0.148   485344
[ bonds ]
 7430  7432     1    0.148   485344    0.148   485344
[ bonds ]
 7430  7433     1     0.16   225936     0.16   225936
[ bonds ]
 7430  7434     1     0.16   225936     0.16   225936
[ bonds ]
 7433  7435     1    0.143   284512    0.143   284512
[ constraints ] ; from mdp
 7435  7436     1   0.1111   0.1111
[ constraints ] ; from mdp
 7435  7437     1   0.1111   0.1111
[ bonds ]
 7435  7438     1   0.1538   186188   0.1538   186188
[ constraints ] ; from mdp
 7438  7439     1   0.1111   0.1111
[ bonds ]
 7438  7440     1    0.143   284512    0.143   284512
[ bonds ]
 7438  7446     1   0.1538   186188   0.1538   186188
[ bonds ]
 7440  7441     1   0.1334   125520   0.1334   125520
[ bonds ]
 7441  7442     1    0.122   627600    0.122   627600
[ bonds ]
 7441  7443     1   0.1522   167360   0.1522   167360
[ constraints ] ; from mdp
 7443  7444     1   0.1111   0.1111
[ constraints ] ; from mdp
 7443  7445     1   0.1111   0.1111
[ bonds ]
 7443  7455     1    0.153   186188    0.153   186188
[ constraints ] ; from mdp
 7446  7447     1   0.1111   0.1111
[ constraints ] ; from mdp
 7446  7448     1   0.1111   0.1111
[ bonds ]
 7446  7449     1    0.143   284512    0.143   284512
[ bonds ]
 7449  7450     1   0.1334   125520   0.1334   125520
[ bonds ]
 7450  7451     1    0.122   627600    0.122   627600
[ bonds ]
 7450  7452     1   0.1522   167360   0.1522   167360
[ constraints ] ; from mdp
 7452  7453     1   0.1111   0.1111
[ constraints ] ; from mdp
 7452  7454     1   0.1111   0.1111
[ bonds ]
 7452  7498     1    0.153   186188    0.153   186188
[ constraints ] ; from mdp
 7455  7456     1   0.1111   0.1111
[ constraints ] ; from mdp
 7455  7457     1   0.1111   0.1111
[ bonds ]
 7455  7458     1    0.153   186188    0.153   186188
[ constraints ] ; from mdp
 7458  7459     1   0.1111   0.1111
[ constraints ] ; from mdp
 7458  7460     1   0.1111   0.1111
[ bonds ]
 7458  7461     1    0.153   186188    0.153   186188
[ constraints ] ; from mdp
 7461  7462     1   0.1111   0.1111
[ constraints ] ; from mdp
 7461  7463     1   0.1111   0.1111
[ bonds ]
 7461  7464     1    0.153   186188    0.153   186188
[ constraints ] ; from mdp
 7464  7465     1   0.1111   0.1111
[ constraints ] ; from mdp
 7464  7466     1   0.1111   0.1111
[ bonds ]
 7464  7467     1    0.153   186188    0.153   186188
[ constraints ] ; from mdp
 7467  7468     1   0.1111   0.1111
[ constraints ] ; from mdp
 7467  7469     1   0.1111   0.1111
[ bonds ]
 7467  7470     1    0.153   186188    0.153   186188
[ constraints ] ; from mdp
 7470  7471     1   0.1111   0.1111
[ constraints ] ; from mdp
 7470  7472     1   0.1111   0.1111
[ bonds ]
 7470  7473     1    0.153   186188    0.153   186188
[ constraints ] ; from mdp
 7473  7474     1   0.1111   0.1111
[ constraints ] ; from mdp
 7473  7475     1   0.1111   0.1111
[ bonds ]
 7473  7476     1    0.153   186188    0.153   186188
[ constraints ] ; from mdp
 7476  7477     1   0.1111   0.1111
[ constraints ] ; from mdp
 7476  7478     1   0.1111   0.1111
[ bonds ]
 7476  7479     1    0.153   186188    0.153   186188
[ constraints ] ; from mdp
 7479  7480     1   0.1111   0.1111
[ constraints ] ; from mdp
 7479  7481     1   0.1111   0.1111
[ bonds ]
 7479  7482     1    0.153   186188    0.153   186188
[ constraints ] ; from mdp
 7482  7483     1   0.1111   0.1111
[ constraints ] ; from mdp
 7482  7484     1   0.1111   0.1111
[ bonds ]
 7482  7485     1    0.153   186188    0.153   186188
[ constraints ] ; from mdp
 7485  7486     1   0.1111   0.1111
[ constraints ] ; from mdp
 7485  7487     1   0.1111   0.1111
[ bonds ]
 7485  7488     1    0.153   186188    0.153   186188
[ constraints ] ; from mdp
 7488  7489     1   0.1111   0.1111
[ constraints ] ; from mdp
 7488  7490     1   0.1111   0.1111
[ bonds ]
 7488  7491     1    0.153   186188    0.153   186188
[ constraints ] ; from mdp
 7491  7492     1   0.1111   0.1111
[ constraints ] ; from mdp
 7491  7493     1   0.1111   0.1111
[ bonds ]
 7491  7494     1   0.1528   186188   0.1528   186188
[ constraints ] ; from mdp
 7494  7495     1   0.1111   0.1111
[ constraints ] ; from mdp
 7494  7496     1   0.1111   0.1111
[ constraints ] ; from mdp
 7494  7497     1   0.1111   0.1111
[ constraints ] ; from mdp
 7498  7499     1   0.1111   0.1111
[ constraints ] ; from mdp
 7498  7500     1   0.1111   0.1111
[ bonds ]
 7498  7501     1    0.153   186188    0.153   186188
[ constraints ] ; from mdp
 7501  7502     1   0.1111   0.1111
[ constraints ] ; from mdp
 7501  7503     1   0.1111   0.1111
[ bonds ]
 7501  7504     1    0.153   186188    0.153   186188
[ constraints ] ; from mdp
 7504  7505     1   0.1111   0.1111
[ constraints ] ; from mdp
 7504  7506     1   0.1111   0.1111
[ bonds ]
 7504  7507     1    0.153   186188    0.153   186188
[ constraints ] ; from mdp
 7507  7508     1   0.1111   0.1111
[ constraints ] ; from mdp
 7507  7509     1   0.1111   0.1111
[ bonds ]
 7507  7510     1    0.153   186188    0.153   186188
[ constraints ] ; from mdp
 7510  7511     1   0.1111   0.1111
[ constraints ] ; from mdp
 7510  7512     1   0.1111   0.1111
[ bonds ]
 7510  7513     1    0.153   186188    0.153   186188
[ constraints ] ; from mdp
 7513  7514     1   0.1111   0.1111
[ constraints ] ; from mdp
 7513  7515     1   0.1111   0.1111
[ bonds ]
 7513  7516     1    0.153   186188    0.153   186188
[ constraints ] ; from mdp
 7516  7517     1   0.1111   0.1111
[ constraints ] ; from mdp
 7516  7518     1   0.1111   0.1111
[ bonds ]
 7516  7519     1    0.153   186188    0.153   186188
[ constraints ] ; from mdp
 7519  7520     1   0.1111   0.1111
[ constraints ] ; from mdp
 7519  7521     1   0.1111   0.1111
[ bonds ]
 7519  7522     1    0.153   186188    0.153   186188
[ constraints ] ; from mdp
 7522  7523     1   0.1111   0.1111
[ constraints ] ; from mdp
 7522  7524     1   0.1111   0.1111
[ bonds ]
 7522  7525     1    0.153   186188    0.153   186188
[ constraints ] ; from mdp
 7525  7526     1   0.1111   0.1111
[ constraints ] ; from mdp
 7525  7527     1   0.1111   0.1111
[ bonds ]
 7525  7528     1    0.153   186188    0.153   186188
[ constraints ] ; from mdp
 7528  7529     1   0.1111   0.1111
[ constraints ] ; from mdp
 7528  7530     1   0.1111   0.1111
[ bonds ]
 7528  7531     1    0.153   186188    0.153   186188
[ constraints ] ; from mdp
 7531  7532     1   0.1111   0.1111
[ constraints ] ; from mdp
 7531  7533     1   0.1111   0.1111
[ bonds ]
 7531  7534     1    0.153   186188    0.153   186188
[ constraints ] ; from mdp
 7534  7535     1   0.1111   0.1111
[ constraints ] ; from mdp
 7534  7536     1   0.1111   0.1111
[ bonds ]
 7534  7537     1   0.1528   186188   0.1528   186188
[ constraints ] ; from mdp
 7537  7538     1   0.1111   0.1111
[ constraints ] ; from mdp
 7537  7539     1   0.1111   0.1111
[ constraints ] ; from mdp
 7537  7540     1   0.1111   0.1111
[ bonds ]
 7541  7542     1    0.151   179912    0.151   179912
[ bonds ]
 7541  7546     1    0.151   179912    0.151   179912
[ bonds ]
 7541  7550     1    0.151   179912    0.151   179912
[ bonds ]
 7541  7554     1    0.151   179912    0.151   179912
[ constraints ] ; from mdp
 7542  7543     1    0.108    0.108
[ constraints ] ; from mdp
 7542  7544     1    0.108    0.108
[ constraints ] ; from mdp
 7542  7545     1    0.108    0.108
[ constraints ] ; from mdp
 7546  7547     1    0.108    0.108
[ constraints ] ; from mdp
 7546  7548     1    0.108    0.108
[ constraints ] ; from mdp
 7546  7549     1    0.108    0.108
[ constraints ] ; from mdp
 7550  7551     1    0.108    0.108
[ constraints ] ; from mdp
 7550  7552     1    0.108    0.108
[ constraints ] ; from mdp
 7550  7553     1    0.108    0.108
[ constraints ] ; from mdp
 7554  7555     1    0.108    0.108
[ constraints ] ; from mdp
 7554  7556     1    0.108    0.108
[ bonds ]
 7554  7557     1    0.153   186188    0.153   186188
[ constraints ] ; from mdp
 7557  7558     1   0.1111   0.1111
[ constraints ] ; from mdp
 7557  7559     1   0.1111   0.1111
[ bonds ]
 7557  7564     1    0.143   284512    0.143   284512
[ bonds ]
 7560  7561     1    0.148   485344    0.148   485344
[ bonds ]
 7560  7562     1    0.148   485344    0.148   485344
[ bonds ]
 7560  7563     1     0.16   225936     0.16   225936
[ bonds ]
 7560  7564     1     0.16   225936     0.16   225936
[ bonds ]
 7563  7565     1    0.143   284512    0.143   284512
[ constraints ] ; from mdp
 7565  7566     1   0.1111   0.1111
[ constraints ] ; from mdp
 7565  7567     1   0.1111   0.1111
[ bonds ]
 7565  7568     1   0.1538   186188   0.1538   186188
[ constraints ] ; from mdp
 7568  7569     1   0.1111   0.1111
[ bonds ]
 7568  7570     1    0.143   284512    0.143   284512
[ bonds ]
 7568  7576     1   0.1538   186188   0.1538   186188
[ bonds ]
 7570  7571     1   0.1334   125520   0.1334   125520
[ bonds ]
 7571  7572     1    0.122   627600    0.122   627600
[ bonds ]
 7571  7573     1   0.1522   167360   0.1522   167360
[ constraints ] ; from mdp
 7573  7574     1   0.1111   0.1111
[ constraints ] ; from mdp
 7573  7575     1   0.1111   0.1111
[ bonds ]
 7573  7585     1    0.153   186188    0.153   186188
[ constraints ] ; from mdp
 7576  7577     1   0.1111   0.1111
[ constraints ] ; from mdp
 7576  7578     1   0.1111   0.1111
[ bonds ]
 7576  7579     1    0.143   284512    0.143   284512
[ bonds ]
 7579  7580     1   0.1334   125520   0.1334   125520
[ bonds ]
 7580  7581     1    0.122   627600    0.122   627600
[ bonds ]
 7580  7582     1   0.1522   167360   0.1522   167360
[ constraints ] ; from mdp
 7582  7583     1   0.1111   0.1111
[ constraints ] ; from mdp
 7582  7584     1   0.1111   0.1111
[ bonds ]
 7582  7628     1    0.153   186188    0.153   186188
[ constraints ] ; from mdp
 7585  7586     1   0.1111   0.1111
[ constraints ] ; from mdp
 7585  7587     1   0.1111   0.1111
[ bonds ]
 7585  7588     1    0.153   186188    0.153   186188
[ constraints ] ; from mdp
 7588  7589     1   0.1111   0.1111
[ constraints ] ; from mdp
 7588  7590     1   0.1111   0.1111
[ bonds ]
 7588  7591     1    0.153   186188    0.153   186188
[ constraints ] ; from mdp
 7591  7592     1   0.1111   0.1111
[ constraints ] ; from mdp
 7591  7593     1   0.1111   0.1111
[ bonds ]
 7591  7594     1    0.153   186188    0.153   186188
[ constraints ] ; from mdp
 7594  7595     1   0.1111   0.1111
[ constraints ] ; from mdp
 7594  7596     1   0.1111   0.1111
[ bonds ]
 7594  7597     1    0.153   186188    0.153   186188
[ constraints ] ; from mdp
 7597  7598     1   0.1111   0.1111
[ constraints ] ; from mdp
 7597  7599     1   0.1111   0.1111
[ bonds ]
 7597  7600     1    0.153   186188    0.153   186188
[ constraints ] ; from mdp
 7600  7601     1   0.1111   0.1111
[ constraints ] ; from mdp
 7600  7602     1   0.1111   0.1111
[ bonds ]
 7600  7603     1    0.153   186188    0.153   186188
[ constraints ] ; from mdp
 7603  7604     1   0.1111   0.1111
[ constraints ] ; from mdp
 7603  7605     1   0.1111   0.1111
[ bonds ]
 7603  7606     1    0.153   186188    0.153   186188
[ constraints ] ; from mdp
 7606  7607     1   0.1111   0.1111
[ constraints ] ; from mdp
 7606  7608     1   0.1111   0.1111
[ bonds ]
 7606  7609     1    0.153   186188    0.153   186188
[ constraints ] ; from mdp
 7609  7610     1   0.1111   0.1111
[ constraints ] ; from mdp
 7609  7611     1   0.1111   0.1111
[ bonds ]
 7609  7612     1    0.153   186188    0.153   186188
[ constraints ] ; from mdp
 7612  7613     1   0.1111   0.1111
[ constraints ] ; from mdp
 7612  7614     1   0.1111   0.1111
[ bonds ]
 7612  7615     1    0.153   186188    0.153   186188
[ constraints ] ; from mdp
 7615  7616     1   0.1111   0.1111
[ constraints ] ; from mdp
 7615  7617     1   0.1111   0.1111
[ bonds ]
 7615  7618     1    0.153   186188    0.153   186188
[ constraints ] ; from mdp
 7618  7619     1   0.1111   0.1111
[ constraints ] ; from mdp
 7618  7620     1   0.1111   0.1111
[ bonds ]
 7618  7621     1    0.153   186188    0.153   186188
[ constraints ] ; from mdp
 7621  7622     1   0.1111   0.1111
[ constraints ] ; from mdp
 7621  7623     1   0.1111   0.1111
[ bonds ]
 7621  7624     1   0.1528   186188   0.1528   186188
[ constraints ] ; from mdp
 7624  7625     1   0.1111   0.1111
[ constraints ] ; from mdp
 7624  7626     1   0.1111   0.1111
[ constraints ] ; from mdp
 7624  7627     1   0.1111   0.1111
[ constraints ] ; from mdp
 7628  7629     1   0.1111   0.1111
[ constraints ] ; from mdp
 7628  7630     1   0.1111   0.1111
[ bonds ]
 7628  7631     1    0.153   186188    0.153   186188
[ constraints ] ; from mdp
 7631  7632     1   0.1111   0.1111
[ constraints ] ; from mdp
 7631  7633     1   0.1111   0.1111
[ bonds ]
 7631  7634     1    0.153   186188    0.153   186188
[ constraints ] ; from mdp
 7634  7635     1   0.1111   0.1111
[ constraints ] ; from mdp
 7634  7636     1   0.1111   0.1111
[ bonds ]
 7634  7637     1    0.153   186188    0.153   186188
[ constraints ] ; from mdp
 7637  7638     1   0.1111   0.1111
[ constraints ] ; from mdp
 7637  7639     1   0.1111   0.1111
[ bonds ]
 7637  7640     1    0.153   186188    0.153   186188
[ constraints ] ; from mdp
 7640  7641     1   0.1111   0.1111
[ constraints ] ; from mdp
 7640  7642     1   0.1111   0.1111
[ bonds ]
 7640  7643     1    0.153   186188    0.153   186188
[ constraints ] ; from mdp
 7643  7644     1   0.1111   0.1111
[ constraints ] ; from mdp
 7643  7645     1   0.1111   0.1111
[ bonds ]
 7643  7646     1    0.153   186188    0.153   186188
[ constraints ] ; from mdp
 7646  7647     1   0.1111   0.1111
[ constraints ] ; from mdp
 7646  7648     1   0.1111   0.1111
[ bonds ]
 7646  7649     1    0.153   186188    0.153   186188
[ constraints ] ; from mdp
 7649  7650     1   0.1111   0.1111
[ constraints ] ; from mdp
 7649  7651     1   0.1111   0.1111
[ bonds ]
 7649  7652     1    0.153   186188    0.153   186188
[ constraints ] ; from mdp
 7652  7653     1   0.1111   0.1111
[ constraints ] ; from mdp
 7652  7654     1   0.1111   0.1111
[ bonds ]
 7652  7655     1    0.153   186188    0.153   186188
[ constraints ] ; from mdp
 7655  7656     1   0.1111   0.1111
[ constraints ] ; from mdp
 7655  7657     1   0.1111   0.1111
[ bonds ]
 7655  7658     1    0.153   186188    0.153   186188
[ constraints ] ; from mdp
 7658  7659     1   0.1111   0.1111
[ constraints ] ; from mdp
 7658  7660     1   0.1111   0.1111
[ bonds ]
 7658  7661     1    0.153   186188    0.153   186188
[ constraints ] ; from mdp
 7661  7662     1   0.1111   0.1111
[ constraints ] ; from mdp
 7661  7663     1   0.1111   0.1111
[ bonds ]
 7661  7664     1    0.153   186188    0.153   186188
[ constraints ] ; from mdp
 7664  7665     1   0.1111   0.1111
[ constraints ] ; from mdp
 7664  7666     1   0.1111   0.1111
[ bonds ]
 7664  7667     1   0.1528   186188   0.1528   186188
[ constraints ] ; from mdp
 7667  7668     1   0.1111   0.1111
[ constraints ] ; from mdp
 7667  7669     1   0.1111   0.1111
[ constraints ] ; from mdp
 7667  7670     1   0.1111   0.1111
[ bonds ]
 7671  7672     1    0.151   179912    0.151   179912
[ bonds ]
 7671  7676     1    0.151   179912    0.151   179912
[ bonds ]
 7671  7680     1    0.151   179912    0.151   179912
[ bonds ]
 7671  7684     1    0.151   179912    0.151   179912
[ constraints ] ; from mdp
 7672  7673     1    0.108    0.108
[ constraints ] ; from mdp
 7672  7674     1    0.108    0.108
[ constraints ] ; from mdp
 7672  7675     1    0.108    0.108
[ constraints ] ; from mdp
 7676  7677     1    0.108    0.108
[ constraints ] ; from mdp
 7676  7678     1    0.108    0.108
[ constraints ] ; from mdp
 7676  7679     1    0.108    0.108
[ constraints ] ; from mdp
 7680  7681     1    0.108    0.108
[ constraints ] ; from mdp
 7680  7682     1    0.108    0.108
[ constraints ] ; from mdp
 7680  7683     1    0.108    0.108
[ constraints ] ; from mdp
 7684  7685     1    0.108    0.108
[ constraints ] ; from mdp
 7684  7686     1    0.108    0.108
[ bonds ]
 7684  7687     1    0.153   186188    0.153   186188
[ constraints ] ; from mdp
 7687  7688     1   0.1111   0.1111
[ constraints ] ; from mdp
 7687  7689     1   0.1111   0.1111
[ bonds ]
 7687  7694     1    0.143   284512    0.143   284512
[ bonds ]
 7690  7691     1    0.148   485344    0.148   485344
[ bonds ]
 7690  7692     1    0.148   485344    0.148   485344
[ bonds ]
 7690  7693     1     0.16   225936     0.16   225936
[ bonds ]
 7690  7694     1     0.16   225936     0.16   225936
[ bonds ]
 7693  7695     1    0.143   284512    0.143   284512
[ constraints ] ; from mdp
 7695  7696     1   0.1111   0.1111
[ constraints ] ; from mdp
 7695  7697     1   0.1111   0.1111
[ bonds ]
 7695  7698     1   0.1538   186188   0.1538   186188
[ constraints ] ; from mdp
 7698  7699     1   0.1111   0.1111
[ bonds ]
 7698  7700     1    0.143   284512    0.143   284512
[ bonds ]
 7698  7706     1   0.1538   186188   0.1538   186188
[ bonds ]
 7700  7701     1   0.1334   125520   0.1334   125520
[ bonds ]
 7701  7702     1    0.122   627600    0.122   627600
[ bonds ]
 7701  7703     1   0.1522   167360   0.1522   167360
[ constraints ] ; from mdp
 7703  7704     1   0.1111   0.1111
[ constraints ] ; from mdp
 7703  7705     1   0.1111   0.1111
[ bonds ]
 7703  7715     1    0.153   186188    0.153   186188
[ constraints ] ; from mdp
 7706  7707     1   0.1111   0.1111
[ constraints ] ; from mdp
 7706  7708     1   0.1111   0.1111
[ bonds ]
 7706  7709     1    0.143   284512    0.143   284512
[ bonds ]
 7709  7710     1   0.1334   125520   0.1334   125520
[ bonds ]
 7710  7711     1    0.122   627600    0.122   627600
[ bonds ]
 7710  7712     1   0.1522   167360   0.1522   167360
[ constraints ] ; from mdp
 7712  7713     1   0.1111   0.1111
[ constraints ] ; from mdp
 7712  7714     1   0.1111   0.1111
[ bonds ]
 7712  7758     1    0.153   186188    0.153   186188
[ constraints ] ; from mdp
 7715  7716     1   0.1111   0.1111
[ constraints ] ; from mdp
 7715  7717     1   0.1111   0.1111
[ bonds ]
 7715  7718     1    0.153   186188    0.153   186188
[ constraints ] ; from mdp
 7718  7719     1   0.1111   0.1111
[ constraints ] ; from mdp
 7718  7720     1   0.1111   0.1111
[ bonds ]
 7718  7721     1    0.153   186188    0.153   186188
[ constraints ] ; from mdp
 7721  7722     1   0.1111   0.1111
[ constraints ] ; from mdp
 7721  7723     1   0.1111   0.1111
[ bonds ]
 7721  7724     1    0.153   186188    0.153   186188
[ constraints ] ; from mdp
 7724  7725     1   0.1111   0.1111
[ constraints ] ; from mdp
 7724  7726     1   0.1111   0.1111
[ bonds ]
 7724  7727     1    0.153   186188    0.153   186188
[ constraints ] ; from mdp
 7727  7728     1   0.1111   0.1111
[ constraints ] ; from mdp
 7727  7729     1   0.1111   0.1111
[ bonds ]
 7727  7730     1    0.153   186188    0.153   186188
[ constraints ] ; from mdp
 7730  7731     1   0.1111   0.1111
[ constraints ] ; from mdp
 7730  7732     1   0.1111   0.1111
[ bonds ]
 7730  7733     1    0.153   186188    0.153   186188
[ constraints ] ; from mdp
 7733  7734     1   0.1111   0.1111
[ constraints ] ; from mdp
 7733  7735     1   0.1111   0.1111
[ bonds ]
 7733  7736     1    0.153   186188    0.153   186188
[ constraints ] ; from mdp
 7736  7737     1   0.1111   0.1111
[ constraints ] ; from mdp
 7736  7738     1   0.1111   0.1111
[ bonds ]
 7736  7739     1    0.153   186188    0.153   186188
[ constraints ] ; from mdp
 7739  7740     1   0.1111   0.1111
[ constraints ] ; from mdp
 7739  7741     1   0.1111   0.1111
[ bonds ]
 7739  7742     1    0.153   186188    0.153   186188
[ constraints ] ; from mdp
 7742  7743     1   0.1111   0.1111
[ constraints ] ; from mdp
 7742  7744     1   0.1111   0.1111
[ bonds ]
 7742  7745     1    0.153   186188    0.153   186188
[ constraints ] ; from mdp
 7745  7746     1   0.1111   0.1111
[ constraints ] ; from mdp
 7745  7747     1   0.1111   0.1111
[ bonds ]
 7745  7748     1    0.153   186188    0.153   186188
[ constraints ] ; from mdp
 7748  7749     1   0.1111   0.1111
[ constraints ] ; from mdp
 7748  7750     1   0.1111   0.1111
[ bonds ]
 7748  7751     1    0.153   186188    0.153   186188
[ constraints ] ; from mdp
 7751  7752     1   0.1111   0.1111
[ constraints ] ; from mdp
 7751  7753     1   0.1111   0.1111
[ bonds ]
 7751  7754     1   0.1528   186188   0.1528   186188
[ constraints ] ; from mdp
 7754  7755     1   0.1111   0.1111
[ constraints ] ; from mdp
 7754  7756     1   0.1111   0.1111
[ constraints ] ; from mdp
 7754  7757     1   0.1111   0.1111
[ constraints ] ; from mdp
 7758  7759     1   0.1111   0.1111
[ constraints ] ; from mdp
 7758  7760     1   0.1111   0.1111
[ bonds ]
 7758  7761     1    0.153   186188    0.153   186188
[ constraints ] ; from mdp
 7761  7762     1   0.1111   0.1111
[ constraints ] ; from mdp
 7761  7763     1   0.1111   0.1111
[ bonds ]
 7761  7764     1    0.153   186188    0.153   186188
[ constraints ] ; from mdp
 7764  7765     1   0.1111   0.1111
[ constraints ] ; from mdp
 7764  7766     1   0.1111   0.1111
[ bonds ]
 7764  7767     1    0.153   186188    0.153   186188
[ constraints ] ; from mdp
 7767  7768     1   0.1111   0.1111
[ constraints ] ; from mdp
 7767  7769     1   0.1111   0.1111
[ bonds ]
 7767  7770     1    0.153   186188    0.153   186188
[ constraints ] ; from mdp
 7770  7771     1   0.1111   0.1111
[ constraints ] ; from mdp
 7770  7772     1   0.1111   0.1111
[ bonds ]
 7770  7773     1    0.153   186188    0.153   186188
[ constraints ] ; from mdp
 7773  7774     1   0.1111   0.1111
[ constraints ] ; from mdp
 7773  7775     1   0.1111   0.1111
[ bonds ]
 7773  7776     1    0.153   186188    0.153   186188
[ constraints ] ; from mdp
 7776  7777     1   0.1111   0.1111
[ constraints ] ; from mdp
 7776  7778     1   0.1111   0.1111
[ bonds ]
 7776  7779     1    0.153   186188    0.153   186188
[ constraints ] ; from mdp
 7779  7780     1   0.1111   0.1111
[ constraints ] ; from mdp
 7779  7781     1   0.1111   0.1111
[ bonds ]
 7779  7782     1    0.153   186188    0.153   186188
[ constraints ] ; from mdp
 7782  7783     1   0.1111   0.1111
[ constraints ] ; from mdp
 7782  7784     1   0.1111   0.1111
[ bonds ]
 7782  7785     1    0.153   186188    0.153   186188
[ constraints ] ; from mdp
 7785  7786     1   0.1111   0.1111
[ constraints ] ; from mdp
 7785  7787     1   0.1111   0.1111
[ bonds ]
 7785  7788     1    0.153   186188    0.153   186188
[ constraints ] ; from mdp
 7788  7789     1   0.1111   0.1111
[ constraints ] ; from mdp
 7788  7790     1   0.1111   0.1111
[ bonds ]
 7788  7791     1    0.153   186188    0.153   186188
[ constraints ] ; from mdp
 7791  7792     1   0.1111   0.1111
[ constraints ] ; from mdp
 7791  7793     1   0.1111   0.1111
[ bonds ]
 7791  7794     1    0.153   186188    0.153   186188
[ constraints ] ; from mdp
 7794  7795     1   0.1111   0.1111
[ constraints ] ; from mdp
 7794  7796     1   0.1111   0.1111
[ bonds ]
 7794  7797     1   0.1528   186188   0.1528   186188
[ constraints ] ; from mdp
 7797  7798     1   0.1111   0.1111
[ constraints ] ; from mdp
 7797  7799     1   0.1111   0.1111
[ constraints ] ; from mdp
 7797  7800     1   0.1111   0.1111
[ bonds ]
 7801  7802     1    0.151   179912    0.151   179912
[ bonds ]
 7801  7806     1    0.151   179912    0.151   179912
[ bonds ]
 7801  7810     1    0.151   179912    0.151   179912
[ bonds ]
 7801  7814     1    0.151   179912    0.151   179912
[ constraints ] ; from mdp
 7802  7803     1    0.108    0.108
[ constraints ] ; from mdp
 7802  7804     1    0.108    0.108
[ constraints ] ; from mdp
 7802  7805     1    0.108    0.108
[ constraints ] ; from mdp
 7806  7807     1    0.108    0.108
[ constraints ] ; from mdp
 7806  7808     1    0.108    0.108
[ constraints ] ; from mdp
 7806  7809     1    0.108    0.108
[ constraints ] ; from mdp
 7810  7811     1    0.108    0.108
[ constraints ] ; from mdp
 7810  7812     1    0.108    0.108
[ constraints ] ; from mdp
 7810  7813     1    0.108    0.108
[ constraints ] ; from mdp
 7814  7815     1    0.108    0.108
[ constraints ] ; from mdp
 7814  7816     1    0.108    0.108
[ bonds ]
 7814  7817     1    0.153   186188    0.153   186188
[ constraints ] ; from mdp
 7817  7818     1   0.1111   0.1111
[ constraints ] ; from mdp
 7817  7819     1   0.1111   0.1111
[ bonds ]
 7817  7824     1    0.143   284512    0.143   284512
[ bonds ]
 7820  7821     1    0.148   485344    0.148   485344
[ bonds ]
 7820  7822     1    0.148   485344    0.148   485344
[ bonds ]
 7820  7823     1     0.16   225936     0.16   225936
[ bonds ]
 7820  7824     1     0.16   225936     0.16   225936
[ bonds ]
 7823  7825     1    0.143   284512    0.143   284512
[ constraints ] ; from mdp
 7825  7826     1   0.1111   0.1111
[ constraints ] ; from mdp
 7825  7827     1   0.1111   0.1111
[ bonds ]
 7825  7828     1   0.1538   186188   0.1538   186188
[ constraints ] ; from mdp
 7828  7829     1   0.1111   0.1111
[ bonds ]
 7828  7830     1    0.143   284512    0.143   284512
[ bonds ]
 7828  7836     1   0.1538   186188   0.1538   186188
[ bonds ]
 7830  7831     1   0.1334   125520   0.1334   125520
[ bonds ]
 7831  7832     1    0.122   627600    0.122   627600
[ bonds ]
 7831  7833     1   0.1522   167360   0.1522   167360
[ constraints ] ; from mdp
 7833  7834     1   0.1111   0.1111
[ constraints ] ; from mdp
 7833  7835     1   0.1111   0.1111
[ bonds ]
 7833  7845     1    0.153   186188    0.153   186188
[ constraints ] ; from mdp
 7836  7837     1   0.1111   0.1111
[ constraints ] ; from mdp
 7836  7838     1   0.1111   0.1111
[ bonds ]
 7836  7839     1    0.143   284512    0.143   284512
[ bonds ]
 7839  7840     1   0.1334   125520   0.1334   125520
[ bonds ]
 7840  7841     1    0.122   627600    0.122   627600
[ bonds ]
 7840  7842     1   0.1522   167360   0.1522   167360
[ constraints ] ; from mdp
 7842  7843     1   0.1111   0.1111
[ constraints ] ; from mdp
 7842  7844     1   0.1111   0.1111
[ bonds ]
 7842  7888     1    0.153   186188    0.153   186188
[ constraints ] ; from mdp
 7845  7846     1   0.1111   0.1111
[ constraints ] ; from mdp
 7845  7847     1   0.1111   0.1111
[ bonds ]
 7845  7848     1    0.153   186188    0.153   186188
[ constraints ] ; from mdp
 7848  7849     1   0.1111   0.1111
[ constraints ] ; from mdp
 7848  7850     1   0.1111   0.1111
[ bonds ]
 7848  7851     1    0.153   186188    0.153   186188
[ constraints ] ; from mdp
 7851  7852     1   0.1111   0.1111
[ constraints ] ; from mdp
 7851  7853     1   0.1111   0.1111
[ bonds ]
 7851  7854     1    0.153   186188    0.153   186188
[ constraints ] ; from mdp
 7854  7855     1   0.1111   0.1111
[ constraints ] ; from mdp
 7854  7856     1   0.1111   0.1111
[ bonds ]
 7854  7857     1    0.153   186188    0.153   186188
[ constraints ] ; from mdp
 7857  7858     1   0.1111   0.1111
[ constraints ] ; from mdp
 7857  7859     1   0.1111   0.1111
[ bonds ]
 7857  7860     1    0.153   186188    0.153   186188
[ constraints ] ; from mdp
 7860  7861     1   0.1111   0.1111
[ constraints ] ; from mdp
 7860  7862     1   0.1111   0.1111
[ bonds ]
 7860  7863     1    0.153   186188    0.153   186188
[ constraints ] ; from mdp
 7863  7864     1   0.1111   0.1111
[ constraints ] ; from mdp
 7863  7865     1   0.1111   0.1111
[ bonds ]
 7863  7866     1    0.153   186188    0.153   186188
[ constraints ] ; from mdp
 7866  7867     1   0.1111   0.1111
[ constraints ] ; from mdp
 7866  7868     1   0.1111   0.1111
[ bonds ]
 7866  7869     1    0.153   186188    0.153   186188
[ constraints ] ; from mdp
 7869  7870     1   0.1111   0.1111
[ constraints ] ; from mdp
 7869  7871     1   0.1111   0.1111
[ bonds ]
 7869  7872     1    0.153   186188    0.153   186188
[ constraints ] ; from mdp
 7872  7873     1   0.1111   0.1111
[ constraints ] ; from mdp
 7872  7874     1   0.1111   0.1111
[ bonds ]
 7872  7875     1    0.153   186188    0.153   186188
[ constraints ] ; from mdp
 7875  7876     1   0.1111   0.1111
[ constraints ] ; from mdp
 7875  7877     1   0.1111   0.1111
[ bonds ]
 7875  7878     1    0.153   186188    0.153   186188
[ constraints ] ; from mdp
 7878  7879     1   0.1111   0.1111
[ constraints ] ; from mdp
 7878  7880     1   0.1111   0.1111
[ bonds ]
 7878  7881     1    0.153   186188    0.153   186188
[ constraints ] ; from mdp
 7881  7882     1   0.1111   0.1111
[ constraints ] ; from mdp
 7881  7883     1   0.1111   0.1111
[ bonds ]
 7881  7884     1   0.1528   186188   0.1528   186188
[ constraints ] ; from mdp
 7884  7885     1   0.1111   0.1111
[ constraints ] ; from mdp
 7884  7886     1   0.1111   0.1111
[ constraints ] ; from mdp
 7884  7887     1   0.1111   0.1111
[ constraints ] ; from mdp
 7888  7889     1   0.1111   0.1111
[ constraints ] ; from mdp
 7888  7890     1   0.1111   0.1111
[ bonds ]
 7888  7891     1    0.153   186188    0.153   186188
[ constraints ] ; from mdp
 7891  7892     1   0.1111   0.1111
[ constraints ] ; from mdp
 7891  7893     1   0.1111   0.1111
[ bonds ]
 7891  7894     1    0.153   186188    0.153   186188
[ constraints ] ; from mdp
 7894  7895     1   0.1111   0.1111
[ constraints ] ; from mdp
 7894  7896     1   0.1111   0.1111
[ bonds ]
 7894  7897     1    0.153   186188    0.153   186188
[ constraints ] ; from mdp
 7897  7898     1   0.1111   0.1111
[ constraints ] ; from mdp
 7897  7899     1   0.1111   0.1111
[ bonds ]
 7897  7900     1    0.153   186188    0.153   186188
[ constraints ] ; from mdp
 7900  7901     1   0.1111   0.1111
[ constraints ] ; from mdp
 7900  7902     1   0.1111   0.1111
[ bonds ]
 7900  7903     1    0.153   186188    0.153   186188
[ constraints ] ; from mdp
 7903  7904     1   0.1111   0.1111
[ constraints ] ; from mdp
 7903  7905     1   0.1111   0.1111
[ bonds ]
 7903  7906     1    0.153   186188    0.153   186188
[ constraints ] ; from mdp
 7906  7907     1   0.1111   0.1111
[ constraints ] ; from mdp
 7906  7908     1   0.1111   0.1111
[ bonds ]
 7906  7909     1    0.153   186188    0.153   186188
[ constraints ] ; from mdp
 7909  7910     1   0.1111   0.1111
[ constraints ] ; from mdp
 7909  7911     1   0.1111   0.1111
[ bonds ]
 7909  7912     1    0.153   186188    0.153   186188
[ constraints ] ; from mdp
 7912  7913     1   0.1111   0.1111
[ constraints ] ; from mdp
 7912  7914     1   0.1111   0.1111
[ bonds ]
 7912  7915     1    0.153   186188    0.153   186188
[ constraints ] ; from mdp
 7915  7916     1   0.1111   0.1111
[ constraints ] ; from mdp
 7915  7917     1   0.1111   0.1111
[ bonds ]
 7915  7918     1    0.153   186188    0.153   186188
[ constraints ] ; from mdp
 7918  7919     1   0.1111   0.1111
[ constraints ] ; from mdp
 7918  7920     1   0.1111   0.1111
[ bonds ]
 7918  7921     1    0.153   186188    0.153   186188
[ constraints ] ; from mdp
 7921  7922     1   0.1111   0.1111
[ constraints ] ; from mdp
 7921  7923     1   0.1111   0.1111
[ bonds ]
 7921  7924     1    0.153   186188    0.153   186188
[ constraints ] ; from mdp
 7924  7925     1   0.1111   0.1111
[ constraints ] ; from mdp
 7924  7926     1   0.1111   0.1111
[ bonds ]
 7924  7927     1   0.1528   186188   0.1528   186188
[ constraints ] ; from mdp
 7927  7928     1   0.1111   0.1111
[ constraints ] ; from mdp
 7927  7929     1   0.1111   0.1111
[ constraints ] ; from mdp
 7927  7930     1   0.1111   0.1111
[ bonds ]
 7931  7932     1    0.151   179912    0.151   179912
[ bonds ]
 7931  7936     1    0.151   179912    0.151   179912
[ bonds ]
 7931  7940     1    0.151   179912    0.151   179912
[ bonds ]
 7931  7944     1    0.151   179912    0.151   179912
[ constraints ] ; from mdp
 7932  7933     1    0.108    0.108
[ constraints ] ; from mdp
 7932  7934     1    0.108    0.108
[ constraints ] ; from mdp
 7932  7935     1    0.108    0.108
[ constraints ] ; from mdp
 7936  7937     1    0.108    0.108
[ constraints ] ; from mdp
 7936  7938     1    0.108    0.108
[ constraints ] ; from mdp
 7936  7939     1    0.108    0.108
[ constraints ] ; from mdp
 7940  7941     1    0.108    0.108
[ constraints ] ; from mdp
 7940  7942     1    0.108    0.108
[ constraints ] ; from mdp
 7940  7943     1    0.108    0.108
[ constraints ] ; from mdp
 7944  7945     1    0.108    0.108
[ constraints ] ; from mdp
 7944  7946     1    0.108    0.108
[ bonds ]
 7944  7947     1    0.153   186188    0.153   186188
[ constraints ] ; from mdp
 7947  7948     1   0.1111   0.1111
[ constraints ] ; from mdp
 7947  7949     1   0.1111   0.1111
[ bonds ]
 7947  7954     1    0.143   284512    0.143   284512
[ bonds ]
 7950  7951     1    0.148   485344    0.148   485344
[ bonds ]
 7950  7952     1    0.148   485344    0.148   485344
[ bonds ]
 7950  7953     1     0.16   225936     0.16   225936
[ bonds ]
 7950  7954     1     0.16   225936     0.16   225936
[ bonds ]
 7953  7955     1    0.143   284512    0.143   284512
[ constraints ] ; from mdp
 7955  7956     1   0.1111   0.1111
[ constraints ] ; from mdp
 7955  7957     1   0.1111   0.1111
[ bonds ]
 7955  7958     1   0.1538   186188   0.1538   186188
[ constraints ] ; from mdp
 7958  7959     1   0.1111   0.1111
[ bonds ]
 7958  7960     1    0.143   284512    0.143   284512
[ bonds ]
 7958  7966     1   0.1538   186188   0.1538   186188
[ bonds ]
 7960  7961     1   0.1334   125520   0.1334   125520
[ bonds ]
 7961  7962     1    0.122   627600    0.122   627600
[ bonds ]
 7961  7963     1   0.1522   167360   0.1522   167360
[ constraints ] ; from mdp
 7963  7964     1   0.1111   0.1111
[ constraints ] ; from mdp
 7963  7965     1   0.1111   0.1111
[ bonds ]
 7963  7975     1    0.153   186188    0.153   186188
[ constraints ] ; from mdp
 7966  7967     1   0.1111   0.1111
[ constraints ] ; from mdp
 7966  7968     1   0.1111   0.1111
[ bonds ]
 7966  7969     1    0.143   284512    0.143   284512
[ bonds ]
 7969  7970     1   0.1334   125520   0.1334   125520
[ bonds ]
 7970  7971     1    0.122   627600    0.122   627600
[ bonds ]
 7970  7972     1   0.1522   167360   0.1522   167360
[ constraints ] ; from mdp
 7972  7973     1   0.1111   0.1111
[ constraints ] ; from mdp
 7972  7974     1   0.1111   0.1111
[ bonds ]
 7972  8018     1    0.153   186188    0.153   186188
[ constraints ] ; from mdp
 7975  7976     1   0.1111   0.1111
[ constraints ] ; from mdp
 7975  7977     1   0.1111   0.1111
[ bonds ]
 7975  7978     1    0.153   186188    0.153   186188
[ constraints ] ; from mdp
 7978  7979     1   0.1111   0.1111
[ constraints ] ; from mdp
 7978  7980     1   0.1111   0.1111
[ bonds ]
 7978  7981     1    0.153   186188    0.153   186188
[ constraints ] ; from mdp
 7981  7982     1   0.1111   0.1111
[ constraints ] ; from mdp
 7981  7983     1   0.1111   0.1111
[ bonds ]
 7981  7984     1    0.153   186188    0.153   186188
[ constraints ] ; from mdp
 7984  7985     1   0.1111   0.1111
[ constraints ] ; from mdp
 7984  7986     1   0.1111   0.1111
[ bonds ]
 7984  7987     1    0.153   186188    0.153   186188
[ constraints ] ; from mdp
 7987  7988     1   0.1111   0.1111
[ constraints ] ; from mdp
 7987  7989     1   0.1111   0.1111
[ bonds ]
 7987  7990     1    0.153   186188    0.153   186188
[ constraints ] ; from mdp
 7990  7991     1   0.1111   0.1111
[ constraints ] ; from mdp
 7990  7992     1   0.1111   0.1111
[ bonds ]
 7990  7993     1    0.153   186188    0.153   186188
[ constraints ] ; from mdp
 7993  7994     1   0.1111   0.1111
[ constraints ] ; from mdp
 7993  7995     1   0.1111   0.1111
[ bonds ]
 7993  7996     1    0.153   186188    0.153   186188
[ constraints ] ; from mdp
 7996  7997     1   0.1111   0.1111
[ constraints ] ; from mdp
 7996  7998     1   0.1111   0.1111
[ bonds ]
 7996  7999     1    0.153   186188    0.153   186188
[ constraints ] ; from mdp
 7999  8000     1   0.1111   0.1111
[ constraints ] ; from mdp
 7999  8001     1   0.1111   0.1111
[ bonds ]
 7999  8002     1    0.153   186188    0.153   186188
[ constraints ] ; from mdp
 8002  8003     1   0.1111   0.1111
[ constraints ] ; from mdp
 8002  8004     1   0.1111   0.1111
[ bonds ]
 8002  8005     1    0.153   186188    0.153   186188
[ constraints ] ; from mdp
 8005  8006     1   0.1111   0.1111
[ constraints ] ; from mdp
 8005  8007     1   0.1111   0.1111
[ bonds ]
 8005  8008     1    0.153   186188    0.153   186188
[ constraints ] ; from mdp
 8008  8009     1   0.1111   0.1111
[ constraints ] ; from mdp
 8008  8010     1   0.1111   0.1111
[ bonds ]
 8008  8011     1    0.153   186188    0.153   186188
[ constraints ] ; from mdp
 8011  8012     1   0.1111   0.1111
[ constraints ] ; from mdp
 8011  8013     1   0.1111   0.1111
[ bonds ]
 8011  8014     1   0.1528   186188   0.1528   186188
[ constraints ] ; from mdp
 8014  8015     1   0.1111   0.1111
[ constraints ] ; from mdp
 8014  8016     1   0.1111   0.1111
[ constraints ] ; from mdp
 8014  8017     1   0.1111   0.1111
[ constraints ] ; from mdp
 8018  8019     1   0.1111   0.1111
[ constraints ] ; from mdp
 8018  8020     1   0.1111   0.1111
[ bonds ]
 8018  8021     1    0.153   186188    0.153   186188
[ constraints ] ; from mdp
 8021  8022     1   0.1111   0.1111
[ constraints ] ; from mdp
 8021  8023     1   0.1111   0.1111
[ bonds ]
 8021  8024     1    0.153   186188    0.153   186188
[ constraints ] ; from mdp
 8024  8025     1   0.1111   0.1111
[ constraints ] ; from mdp
 8024  8026     1   0.1111   0.1111
[ bonds ]
 8024  8027     1    0.153   186188    0.153   186188
[ constraints ] ; from mdp
 8027  8028     1   0.1111   0.1111
[ constraints ] ; from mdp
 8027  8029     1   0.1111   0.1111
[ bonds ]
 8027  8030     1    0.153   186188    0.153   186188
[ constraints ] ; from mdp
 8030  8031     1   0.1111   0.1111
[ constraints ] ; from mdp
 8030  8032     1   0.1111   0.1111
[ bonds ]
 8030  8033     1    0.153   186188    0.153   186188
[ constraints ] ; from mdp
 8033  8034     1   0.1111   0.1111
[ constraints ] ; from mdp
 8033  8035     1   0.1111   0.1111
[ bonds ]
 8033  8036     1    0.153   186188    0.153   186188
[ constraints ] ; from mdp
 8036  8037     1   0.1111   0.1111
[ constraints ] ; from mdp
 8036  8038     1   0.1111   0.1111
[ bonds ]
 8036  8039     1    0.153   186188    0.153   186188
[ constraints ] ; from mdp
 8039  8040     1   0.1111   0.1111
[ constraints ] ; from mdp
 8039  8041     1   0.1111   0.1111
[ bonds ]
 8039  8042     1    0.153   186188    0.153   186188
[ constraints ] ; from mdp
 8042  8043     1   0.1111   0.1111
[ constraints ] ; from mdp
 8042  8044     1   0.1111   0.1111
[ bonds ]
 8042  8045     1    0.153   186188    0.153   186188
[ constraints ] ; from mdp
 8045  8046     1   0.1111   0.1111
[ constraints ] ; from mdp
 8045  8047     1   0.1111   0.1111
[ bonds ]
 8045  8048     1    0.153   186188    0.153   186188
[ constraints ] ; from mdp
 8048  8049     1   0.1111   0.1111
[ constraints ] ; from mdp
 8048  8050     1   0.1111   0.1111
[ bonds ]
 8048  8051     1    0.153   186188    0.153   186188
[ constraints ] ; from mdp
 8051  8052     1   0.1111   0.1111
[ constraints ] ; from mdp
 8051  8053     1   0.1111   0.1111
[ bonds ]
 8051  8054     1    0.153   186188    0.153   186188
[ constraints ] ; from mdp
 8054  8055     1   0.1111   0.1111
[ constraints ] ; from mdp
 8054  8056     1   0.1111   0.1111
[ bonds ]
 8054  8057     1   0.1528   186188   0.1528   186188
[ constraints ] ; from mdp
 8057  8058     1   0.1111   0.1111
[ constraints ] ; from mdp
 8057  8059     1   0.1111   0.1111
[ constraints ] ; from mdp
 8057  8060     1   0.1111   0.1111
[ bonds ]
 8061  8062     1    0.151   179912    0.151   179912
[ bonds ]
 8061  8066     1    0.151   179912    0.151   179912
[ bonds ]
 8061  8070     1    0.151   179912    0.151   179912
[ bonds ]
 8061  8074     1    0.151   179912    0.151   179912
[ constraints ] ; from mdp
 8062  8063     1    0.108    0.108
[ constraints ] ; from mdp
 8062  8064     1    0.108    0.108
[ constraints ] ; from mdp
 8062  8065     1    0.108    0.108
[ constraints ] ; from mdp
 8066  8067     1    0.108    0.108
[ constraints ] ; from mdp
 8066  8068     1    0.108    0.108
[ constraints ] ; from mdp
 8066  8069     1    0.108    0.108
[ constraints ] ; from mdp
 8070  8071     1    0.108    0.108
[ constraints ] ; from mdp
 8070  8072     1    0.108    0.108
[ constraints ] ; from mdp
 8070  8073     1    0.108    0.108
[ constraints ] ; from mdp
 8074  8075     1    0.108    0.108
[ constraints ] ; from mdp
 8074  8076     1    0.108    0.108
[ bonds ]
 8074  8077     1    0.153   186188    0.153   186188
[ constraints ] ; from mdp
 8077  8078     1   0.1111   0.1111
[ constraints ] ; from mdp
 8077  8079     1   0.1111   0.1111
[ bonds ]
 8077  8084     1    0.143   284512    0.143   284512
[ bonds ]
 8080  8081     1    0.148   485344    0.148   485344
[ bonds ]
 8080  8082     1    0.148   485344    0.148   485344
[ bonds ]
 8080  8083     1     0.16   225936     0.16   225936
[ bonds ]
 8080  8084     1     0.16   225936     0.16   225936
[ bonds ]
 8083  8085     1    0.143   284512    0.143   284512
[ constraints ] ; from mdp
 8085  8086     1   0.1111   0.1111
[ constraints ] ; from mdp
 8085  8087     1   0.1111   0.1111
[ bonds ]
 8085  8088     1   0.1538   186188   0.1538   186188
[ constraints ] ; from mdp
 8088  8089     1   0.1111   0.1111
[ bonds ]
 8088  8090     1    0.143   284512    0.143   284512
[ bonds ]
 8088  8096     1   0.1538   186188   0.1538   186188
[ bonds ]
 8090  8091     1   0.1334   125520   0.1334   125520
[ bonds ]
 8091  8092     1    0.122   627600    0.122   627600
[ bonds ]
 8091  8093     1   0.1522   167360   0.1522   167360
[ constraints ] ; from mdp
 8093  8094     1   0.1111   0.1111
[ constraints ] ; from mdp
 8093  8095     1   0.1111   0.1111
[ bonds ]
 8093  8105     1    0.153   186188    0.153   186188
[ constraints ] ; from mdp
 8096  8097     1   0.1111   0.1111
[ constraints ] ; from mdp
 8096  8098     1   0.1111   0.1111
[ bonds ]
 8096  8099     1    0.143   284512    0.143   284512
[ bonds ]
 8099  8100     1   0.1334   125520   0.1334   125520
[ bonds ]
 8100  8101     1    0.122   627600    0.122   627600
[ bonds ]
 8100  8102     1   0.1522   167360   0.1522   167360
[ constraints ] ; from mdp
 8102  8103     1   0.1111   0.1111
[ constraints ] ; from mdp
 8102  8104     1   0.1111   0.1111
[ bonds ]
 8102  8148     1    0.153   186188    0.153   186188
[ constraints ] ; from mdp
 8105  8106     1   0.1111   0.1111
[ constraints ] ; from mdp
 8105  8107     1   0.1111   0.1111
[ bonds ]
 8105  8108     1    0.153   186188    0.153   186188
[ constraints ] ; from mdp
 8108  8109     1   0.1111   0.1111
[ constraints ] ; from mdp
 8108  8110     1   0.1111   0.1111
[ bonds ]
 8108  8111     1    0.153   186188    0.153   186188
[ constraints ] ; from mdp
 8111  8112     1   0.1111   0.1111
[ constraints ] ; from mdp
 8111  8113     1   0.1111   0.1111
[ bonds ]
 8111  8114     1    0.153   186188    0.153   186188
[ constraints ] ; from mdp
 8114  8115     1   0.1111   0.1111
[ constraints ] ; from mdp
 8114  8116     1   0.1111   0.1111
[ bonds ]
 8114  8117     1    0.153   186188    0.153   186188
[ constraints ] ; from mdp
 8117  8118     1   0.1111   0.1111
[ constraints ] ; from mdp
 8117  8119     1   0.1111   0.1111
[ bonds ]
 8117  8120     1    0.153   186188    0.153   186188
[ constraints ] ; from mdp
 8120  8121     1   0.1111   0.1111
[ constraints ] ; from mdp
 8120  8122     1   0.1111   0.1111
[ bonds ]
 8120  8123     1    0.153   186188    0.153   186188
[ constraints ] ; from mdp
 8123  8124     1   0.1111   0.1111
[ constraints ] ; from mdp
 8123  8125     1   0.1111   0.1111
[ bonds ]
 8123  8126     1    0.153   186188    0.153   186188
[ constraints ] ; from mdp
 8126  8127     1   0.1111   0.1111
[ constraints ] ; from mdp
 8126  8128     1   0.1111   0.1111
[ bonds ]
 8126  8129     1    0.153   186188    0.153   186188
[ constraints ] ; from mdp
 8129  8130     1   0.1111   0.1111
[ constraints ] ; from mdp
 8129  8131     1   0.1111   0.1111
[ bonds ]
 8129  8132     1    0.153   186188    0.153   186188
[ constraints ] ; from mdp
 8132  8133     1   0.1111   0.1111
[ constraints ] ; from mdp
 8132  8134     1   0.1111   0.1111
[ bonds ]
 8132  8135     1    0.153   186188    0.153   186188
[ constraints ] ; from mdp
 8135  8136     1   0.1111   0.1111
[ constraints ] ; from mdp
 8135  8137     1   0.1111   0.1111
[ bonds ]
 8135  8138     1    0.153   186188    0.153   186188
[ constraints ] ; from mdp
 8138  8139     1   0.1111   0.1111
[ constraints ] ; from mdp
 8138  8140     1   0.1111   0.1111
[ bonds ]
 8138  8141     1    0.153   186188    0.153   186188
[ constraints ] ; from mdp
 8141  8142     1   0.1111   0.1111
[ constraints ] ; from mdp
 8141  8143     1   0.1111   0.1111
[ bonds ]
 8141  8144     1   0.1528   186188   0.1528   186188
[ constraints ] ; from mdp
 8144  8145     1   0.1111   0.1111
[ constraints ] ; from mdp
 8144  8146     1   0.1111   0.1111
[ constraints ] ; from mdp
 8144  8147     1   0.1111   0.1111
[ constraints ] ; from mdp
 8148  8149     1   0.1111   0.1111
[ constraints ] ; from mdp
 8148  8150     1   0.1111   0.1111
[ bonds ]
 8148  8151     1    0.153   186188    0.153   186188
[ constraints ] ; from mdp
 8151  8152     1   0.1111   0.1111
[ constraints ] ; from mdp
 8151  8153     1   0.1111   0.1111
[ bonds ]
 8151  8154     1    0.153   186188    0.153   186188
[ constraints ] ; from mdp
 8154  8155     1   0.1111   0.1111
[ constraints ] ; from mdp
 8154  8156     1   0.1111   0.1111
[ bonds ]
 8154  8157     1    0.153   186188    0.153   186188
[ constraints ] ; from mdp
 8157  8158     1   0.1111   0.1111
[ constraints ] ; from mdp
 8157  8159     1   0.1111   0.1111
[ bonds ]
 8157  8160     1    0.153   186188    0.153   186188
[ constraints ] ; from mdp
 8160  8161     1   0.1111   0.1111
[ constraints ] ; from mdp
 8160  8162     1   0.1111   0.1111
[ bonds ]
 8160  8163     1    0.153   186188    0.153   186188
[ constraints ] ; from mdp
 8163  8164     1   0.1111   0.1111
[ constraints ] ; from mdp
 8163  8165     1   0.1111   0.1111
[ bonds ]
 8163  8166     1    0.153   186188    0.153   186188
[ constraints ] ; from mdp
 8166  8167     1   0.1111   0.1111
[ constraints ] ; from mdp
 8166  8168     1   0.1111   0.1111
[ bonds ]
 8166  8169     1    0.153   186188    0.153   186188
[ constraints ] ; from mdp
 8169  8170     1   0.1111   0.1111
[ constraints ] ; from mdp
 8169  8171     1   0.1111   0.1111
[ bonds ]
 8169  8172     1    0.153   186188    0.153   186188
[ constraints ] ; from mdp
 8172  8173     1   0.1111   0.1111
[ constraints ] ; from mdp
 8172  8174     1   0.1111   0.1111
[ bonds ]
 8172  8175     1    0.153   186188    0.153   186188
[ constraints ] ; from mdp
 8175  8176     1   0.1111   0.1111
[ constraints ] ; from mdp
 8175  8177     1   0.1111   0.1111
[ bonds ]
 8175  8178     1    0.153   186188    0.153   186188
[ constraints ] ; from mdp
 8178  8179     1   0.1111   0.1111
[ constraints ] ; from mdp
 8178  8180     1   0.1111   0.1111
[ bonds ]
 8178  8181     1    0.153   186188    0.153   186188
[ constraints ] ; from mdp
 8181  8182     1   0.1111   0.1111
[ constraints ] ; from mdp
 8181  8183     1   0.1111   0.1111
[ bonds ]
 8181  8184     1    0.153   186188    0.153   186188
[ constraints ] ; from mdp
 8184  8185     1   0.1111   0.1111
[ constraints ] ; from mdp
 8184  8186     1   0.1111   0.1111
[ bonds ]
 8184  8187     1   0.1528   186188   0.1528   186188
[ constraints ] ; from mdp
 8187  8188     1   0.1111   0.1111
[ constraints ] ; from mdp
 8187  8189     1   0.1111   0.1111
[ constraints ] ; from mdp
 8187  8190     1   0.1111   0.1111
[ bonds ]
 8191  8192     1    0.151   179912    0.151   179912
[ bonds ]
 8191  8196     1    0.151   179912    0.151   179912
[ bonds ]
 8191  8200     1    0.151   179912    0.151   179912
[ bonds ]
 8191  8204     1    0.151   179912    0.151   179912
[ constraints ] ; from mdp
 8192  8193     1    0.108    0.108
[ constraints ] ; from mdp
 8192  8194     1    0.108    0.108
[ constraints ] ; from mdp
 8192  8195     1    0.108    0.108
[ constraints ] ; from mdp
 8196  8197     1    0.108    0.108
[ constraints ] ; from mdp
 8196  8198     1    0.108    0.108
[ constraints ] ; from mdp
 8196  8199     1    0.108    0.108
[ constraints ] ; from mdp
 8200  8201     1    0.108    0.108
[ constraints ] ; from mdp
 8200  8202     1    0.108    0.108
[ constraints ] ; from mdp
 8200  8203     1    0.108    0.108
[ constraints ] ; from mdp
 8204  8205     1    0.108    0.108
[ constraints ] ; from mdp
 8204  8206     1    0.108    0.108
[ bonds ]
 8204  8207     1    0.153   186188    0.153   186188
[ constraints ] ; from mdp
 8207  8208     1   0.1111   0.1111
[ constraints ] ; from mdp
 8207  8209     1   0.1111   0.1111
[ bonds ]
 8207  8214     1    0.143   284512    0.143   284512
[ bonds ]
 8210  8211     1    0.148   485344    0.148   485344
[ bonds ]
 8210  8212     1    0.148   485344    0.148   485344
[ bonds ]
 8210  8213     1     0.16   225936     0.16   225936
[ bonds ]
 8210  8214     1     0.16   225936     0.16   225936
[ bonds ]
 8213  8215     1    0.143   284512    0.143   284512
[ constraints ] ; from mdp
 8215  8216     1   0.1111   0.1111
[ constraints ] ; from mdp
 8215  8217     1   0.1111   0.1111
[ bonds ]
 8215  8218     1   0.1538   186188   0.1538   186188
[ constraints ] ; from mdp
 8218  8219     1   0.1111   0.1111
[ bonds ]
 8218  8220     1    0.143   284512    0.143   284512
[ bonds ]
 8218  8226     1   0.1538   186188   0.1538   186188
[ bonds ]
 8220  8221     1   0.1334   125520   0.1334   125520
[ bonds ]
 8221  8222     1    0.122   627600    0.122   627600
[ bonds ]
 8221  8223     1   0.1522   167360   0.1522   167360
[ constraints ] ; from mdp
 8223  8224     1   0.1111   0.1111
[ constraints ] ; from mdp
 8223  8225     1   0.1111   0.1111
[ bonds ]
 8223  8235     1    0.153   186188    0.153   186188
[ constraints ] ; from mdp
 8226  8227     1   0.1111   0.1111
[ constraints ] ; from mdp
 8226  8228     1   0.1111   0.1111
[ bonds ]
 8226  8229     1    0.143   284512    0.143   284512
[ bonds ]
 8229  8230     1   0.1334   125520   0.1334   125520
[ bonds ]
 8230  8231     1    0.122   627600    0.122   627600
[ bonds ]
 8230  8232     1   0.1522   167360   0.1522   167360
[ constraints ] ; from mdp
 8232  8233     1   0.1111   0.1111
[ constraints ] ; from mdp
 8232  8234     1   0.1111   0.1111
[ bonds ]
 8232  8278     1    0.153   186188    0.153   186188
[ constraints ] ; from mdp
 8235  8236     1   0.1111   0.1111
[ constraints ] ; from mdp
 8235  8237     1   0.1111   0.1111
[ bonds ]
 8235  8238     1    0.153   186188    0.153   186188
[ constraints ] ; from mdp
 8238  8239     1   0.1111   0.1111
[ constraints ] ; from mdp
 8238  8240     1   0.1111   0.1111
[ bonds ]
 8238  8241     1    0.153   186188    0.153   186188
[ constraints ] ; from mdp
 8241  8242     1   0.1111   0.1111
[ constraints ] ; from mdp
 8241  8243     1   0.1111   0.1111
[ bonds ]
 8241  8244     1    0.153   186188    0.153   186188
[ constraints ] ; from mdp
 8244  8245     1   0.1111   0.1111
[ constraints ] ; from mdp
 8244  8246     1   0.1111   0.1111
[ bonds ]
 8244  8247     1    0.153   186188    0.153   186188
[ constraints ] ; from mdp
 8247  8248     1   0.1111   0.1111
[ constraints ] ; from mdp
 8247  8249     1   0.1111   0.1111
[ bonds ]
 8247  8250     1    0.153   186188    0.153   186188
[ constraints ] ; from mdp
 8250  8251     1   0.1111   0.1111
[ constraints ] ; from mdp
 8250  8252     1   0.1111   0.1111
[ bonds ]
 8250  8253     1    0.153   186188    0.153   186188
[ constraints ] ; from mdp
 8253  8254     1   0.1111   0.1111
[ constraints ] ; from mdp
 8253  8255     1   0.1111   0.1111
[ bonds ]
 8253  8256     1    0.153   186188    0.153   186188
[ constraints ] ; from mdp
 8256  8257     1   0.1111   0.1111
[ constraints ] ; from mdp
 8256  8258     1   0.1111   0.1111
[ bonds ]
 8256  8259     1    0.153   186188    0.153   186188
[ constraints ] ; from mdp
 8259  8260     1   0.1111   0.1111
[ constraints ] ; from mdp
 8259  8261     1   0.1111   0.1111
[ bonds ]
 8259  8262     1    0.153   186188    0.153   186188
[ constraints ] ; from mdp
 8262  8263     1   0.1111   0.1111
[ constraints ] ; from mdp
 8262  8264     1   0.1111   0.1111
[ bonds ]
 8262  8265     1    0.153   186188    0.153   186188
[ constraints ] ; from mdp
 8265  8266     1   0.1111   0.1111
[ constraints ] ; from mdp
 8265  8267     1   0.1111   0.1111
[ bonds ]
 8265  8268     1    0.153   186188    0.153   186188
[ constraints ] ; from mdp
 8268  8269     1   0.1111   0.1111
[ constraints ] ; from mdp
 8268  8270     1   0.1111   0.1111
[ bonds ]
 8268  8271     1    0.153   186188    0.153   186188
[ constraints ] ; from mdp
 8271  8272     1   0.1111   0.1111
[ constraints ] ; from mdp
 8271  8273     1   0.1111   0.1111
[ bonds ]
 8271  8274     1   0.1528   186188   0.1528   186188
[ constraints ] ; from mdp
 8274  8275     1   0.1111   0.1111
[ constraints ] ; from mdp
 8274  8276     1   0.1111   0.1111
[ constraints ] ; from mdp
 8274  8277     1   0.1111   0.1111
[ constraints ] ; from mdp
 8278  8279     1   0.1111   0.1111
[ constraints ] ; from mdp
 8278  8280     1   0.1111   0.1111
[ bonds ]
 8278  8281     1    0.153   186188    0.153   186188
[ constraints ] ; from mdp
 8281  8282     1   0.1111   0.1111
[ constraints ] ; from mdp
 8281  8283     1   0.1111   0.1111
[ bonds ]
 8281  8284     1    0.153   186188    0.153   186188
[ constraints ] ; from mdp
 8284  8285     1   0.1111   0.1111
[ constraints ] ; from mdp
 8284  8286     1   0.1111   0.1111
[ bonds ]
 8284  8287     1    0.153   186188    0.153   186188
[ constraints ] ; from mdp
 8287  8288     1   0.1111   0.1111
[ constraints ] ; from mdp
 8287  8289     1   0.1111   0.1111
[ bonds ]
 8287  8290     1    0.153   186188    0.153   186188
[ constraints ] ; from mdp
 8290  8291     1   0.1111   0.1111
[ constraints ] ; from mdp
 8290  8292     1   0.1111   0.1111
[ bonds ]
 8290  8293     1    0.153   186188    0.153   186188
[ constraints ] ; from mdp
 8293  8294     1   0.1111   0.1111
[ constraints ] ; from mdp
 8293  8295     1   0.1111   0.1111
[ bonds ]
 8293  8296     1    0.153   186188    0.153   186188
[ constraints ] ; from mdp
 8296  8297     1   0.1111   0.1111
[ constraints ] ; from mdp
 8296  8298     1   0.1111   0.1111
[ bonds ]
 8296  8299     1    0.153   186188    0.153   186188
[ constraints ] ; from mdp
 8299  8300     1   0.1111   0.1111
[ constraints ] ; from mdp
 8299  8301     1   0.1111   0.1111
[ bonds ]
 8299  8302     1    0.153   186188    0.153   186188
[ constraints ] ; from mdp
 8302  8303     1   0.1111   0.1111
[ constraints ] ; from mdp
 8302  8304     1   0.1111   0.1111
[ bonds ]
 8302  8305     1    0.153   186188    0.153   186188
[ constraints ] ; from mdp
 8305  8306     1   0.1111   0.1111
[ constraints ] ; from mdp
 8305  8307     1   0.1111   0.1111
[ bonds ]
 8305  8308     1    0.153   186188    0.153   186188
[ constraints ] ; from mdp
 8308  8309     1   0.1111   0.1111
[ constraints ] ; from mdp
 8308  8310     1   0.1111   0.1111
[ bonds ]
 8308  8311     1    0.153   186188    0.153   186188
[ constraints ] ; from mdp
 8311  8312     1   0.1111   0.1111
[ constraints ] ; from mdp
 8311  8313     1   0.1111   0.1111
[ bonds ]
 8311  8314     1    0.153   186188    0.153   186188
[ constraints ] ; from mdp
 8314  8315     1   0.1111   0.1111
[ constraints ] ; from mdp
 8314  8316     1   0.1111   0.1111
[ bonds ]
 8314  8317     1   0.1528   186188   0.1528   186188
[ constraints ] ; from mdp
 8317  8318     1   0.1111   0.1111
[ constraints ] ; from mdp
 8317  8319     1   0.1111   0.1111
[ constraints ] ; from mdp
 8317  8320     1   0.1111   0.1111
[ bonds ]
 8321  8322     1    0.151   179912    0.151   179912
[ bonds ]
 8321  8326     1    0.151   179912    0.151   179912
[ bonds ]
 8321  8330     1    0.151   179912    0.151   179912
[ bonds ]
 8321  8334     1    0.151   179912    0.151   179912
[ constraints ] ; from mdp
 8322  8323     1    0.108    0.108
[ constraints ] ; from mdp
 8322  8324     1    0.108    0.108
[ constraints ] ; from mdp
 8322  8325     1    0.108    0.108
[ constraints ] ; from mdp
 8326  8327     1    0.108    0.108
[ constraints ] ; from mdp
 8326  8328     1    0.108    0.108
[ constraints ] ; from mdp
 8326  8329     1    0.108    0.108
[ constraints ] ; from mdp
 8330  8331     1    0.108    0.108
[ constraints ] ; from mdp
 8330  8332     1    0.108    0.108
[ constraints ] ; from mdp
 8330  8333     1    0.108    0.108
[ constraints ] ; from mdp
 8334  8335     1    0.108    0.108
[ constraints ] ; from mdp
 8334  8336     1    0.108    0.108
[ bonds ]
 8334  8337     1    0.153   186188    0.153   186188
[ constraints ] ; from mdp
 8337  8338     1   0.1111   0.1111
[ constraints ] ; from mdp
 8337  8339     1   0.1111   0.1111
[ bonds ]
 8337  8344     1    0.143   284512    0.143   284512
[ bonds ]
 8340  8341     1    0.148   485344    0.148   485344
[ bonds ]
 8340  8342     1    0.148   485344    0.148   485344
[ bonds ]
 8340  8343     1     0.16   225936     0.16   225936
[ bonds ]
 8340  8344     1     0.16   225936     0.16   225936
[ bonds ]
 8343  8345     1    0.143   284512    0.143   284512
[ constraints ] ; from mdp
 8345  8346     1   0.1111   0.1111
[ constraints ] ; from mdp
 8345  8347     1   0.1111   0.1111
[ bonds ]
 8345  8348     1   0.1538   186188   0.1538   186188
[ constraints ] ; from mdp
 8348  8349     1   0.1111   0.1111
[ bonds ]
 8348  8350     1    0.143   284512    0.143   284512
[ bonds ]
 8348  8356     1   0.1538   186188   0.1538   186188
[ bonds ]
 8350  8351     1   0.1334   125520   0.1334   125520
[ bonds ]
 8351  8352     1    0.122   627600    0.122   627600
[ bonds ]
 8351  8353     1   0.1522   167360   0.1522   167360
[ constraints ] ; from mdp
 8353  8354     1   0.1111   0.1111
[ constraints ] ; from mdp
 8353  8355     1   0.1111   0.1111
[ bonds ]
 8353  8365     1    0.153   186188    0.153   186188
[ constraints ] ; from mdp
 8356  8357     1   0.1111   0.1111
[ constraints ] ; from mdp
 8356  8358     1   0.1111   0.1111
[ bonds ]
 8356  8359     1    0.143   284512    0.143   284512
[ bonds ]
 8359  8360     1   0.1334   125520   0.1334   125520
[ bonds ]
 8360  8361     1    0.122   627600    0.122   627600
[ bonds ]
 8360  8362     1   0.1522   167360   0.1522   167360
[ constraints ] ; from mdp
 8362  8363     1   0.1111   0.1111
[ constraints ] ; from mdp
 8362  8364     1   0.1111   0.1111
[ bonds ]
 8362  8408     1    0.153   186188    0.153   186188
[ constraints ] ; from mdp
 8365  8366     1   0.1111   0.1111
[ constraints ] ; from mdp
 8365  8367     1   0.1111   0.1111
[ bonds ]
 8365  8368     1    0.153   186188    0.153   186188
[ constraints ] ; from mdp
 8368  8369     1   0.1111   0.1111
[ constraints ] ; from mdp
 8368  8370     1   0.1111   0.1111
[ bonds ]
 8368  8371     1    0.153   186188    0.153   186188
[ constraints ] ; from mdp
 8371  8372     1   0.1111   0.1111
[ constraints ] ; from mdp
 8371  8373     1   0.1111   0.1111
[ bonds ]
 8371  8374     1    0.153   186188    0.153   186188
[ constraints ] ; from mdp
 8374  8375     1   0.1111   0.1111
[ constraints ] ; from mdp
 8374  8376     1   0.1111   0.1111
[ bonds ]
 8374  8377     1    0.153   186188    0.153   186188
[ constraints ] ; from mdp
 8377  8378     1   0.1111   0.1111
[ constraints ] ; from mdp
 8377  8379     1   0.1111   0.1111
[ bonds ]
 8377  8380     1    0.153   186188    0.153   186188
[ constraints ] ; from mdp
 8380  8381     1   0.1111   0.1111
[ constraints ] ; from mdp
 8380  8382     1   0.1111   0.1111
[ bonds ]
 8380  8383     1    0.153   186188    0.153   186188
[ constraints ] ; from mdp
 8383  8384     1   0.1111   0.1111
[ constraints ] ; from mdp
 8383  8385     1   0.1111   0.1111
[ bonds ]
 8383  8386     1    0.153   186188    0.153   186188
[ constraints ] ; from mdp
 8386  8387     1   0.1111   0.1111
[ constraints ] ; from mdp
 8386  8388     1   0.1111   0.1111
[ bonds ]
 8386  8389     1    0.153   186188    0.153   186188
[ constraints ] ; from mdp
 8389  8390     1   0.1111   0.1111
[ constraints ] ; from mdp
 8389  8391     1   0.1111   0.1111
[ bonds ]
 8389  8392     1    0.153   186188    0.153   186188
[ constraints ] ; from mdp
 8392  8393     1   0.1111   0.1111
[ constraints ] ; from mdp
 8392  8394     1   0.1111   0.1111
[ bonds ]
 8392  8395     1    0.153   186188    0.153   186188
[ constraints ] ; from mdp
 8395  8396     1   0.1111   0.1111
[ constraints ] ; from mdp
 8395  8397     1   0.1111   0.1111
[ bonds ]
 8395  8398     1    0.153   186188    0.153   186188
[ constraints ] ; from mdp
 8398  8399     1   0.1111   0.1111
[ constraints ] ; from mdp
 8398  8400     1   0.1111   0.1111
[ bonds ]
 8398  8401     1    0.153   186188    0.153   186188
[ constraints ] ; from mdp
 8401  8402     1   0.1111   0.1111
[ constraints ] ; from mdp
 8401  8403     1   0.1111   0.1111
[ bonds ]
 8401  8404     1   0.1528   186188   0.1528   186188
[ constraints ] ; from mdp
 8404  8405     1   0.1111   0.1111
[ constraints ] ; from mdp
 8404  8406     1   0.1111   0.1111
[ constraints ] ; from mdp
 8404  8407     1   0.1111   0.1111
[ constraints ] ; from mdp
 8408  8409     1   0.1111   0.1111
[ constraints ] ; from mdp
 8408  8410     1   0.1111   0.1111
[ bonds ]
 8408  8411     1    0.153   186188    0.153   186188
[ constraints ] ; from mdp
 8411  8412     1   0.1111   0.1111
[ constraints ] ; from mdp
 8411  8413     1   0.1111   0.1111
[ bonds ]
 8411  8414     1    0.153   186188    0.153   186188
[ constraints ] ; from mdp
 8414  8415     1   0.1111   0.1111
[ constraints ] ; from mdp
 8414  8416     1   0.1111   0.1111
[ bonds ]
 8414  8417     1    0.153   186188    0.153   186188
[ constraints ] ; from mdp
 8417  8418     1   0.1111   0.1111
[ constraints ] ; from mdp
 8417  8419     1   0.1111   0.1111
[ bonds ]
 8417  8420     1    0.153   186188    0.153   186188
[ constraints ] ; from mdp
 8420  8421     1   0.1111   0.1111
[ constraints ] ; from mdp
 8420  8422     1   0.1111   0.1111
[ bonds ]
 8420  8423     1    0.153   186188    0.153   186188
[ constraints ] ; from mdp
 8423  8424     1   0.1111   0.1111
[ constraints ] ; from mdp
 8423  8425     1   0.1111   0.1111
[ bonds ]
 8423  8426     1    0.153   186188    0.153   186188
[ constraints ] ; from mdp
 8426  8427     1   0.1111   0.1111
[ constraints ] ; from mdp
 8426  8428     1   0.1111   0.1111
[ bonds ]
 8426  8429     1    0.153   186188    0.153   186188
[ constraints ] ; from mdp
 8429  8430     1   0.1111   0.1111
[ constraints ] ; from mdp
 8429  8431     1   0.1111   0.1111
[ bonds ]
 8429  8432     1    0.153   186188    0.153   186188
[ constraints ] ; from mdp
 8432  8433     1   0.1111   0.1111
[ constraints ] ; from mdp
 8432  8434     1   0.1111   0.1111
[ bonds ]
 8432  8435     1    0.153   186188    0.153   186188
[ constraints ] ; from mdp
 8435  8436     1   0.1111   0.1111
[ constraints ] ; from mdp
 8435  8437     1   0.1111   0.1111
[ bonds ]
 8435  8438     1    0.153   186188    0.153   186188
[ constraints ] ; from mdp
 8438  8439     1   0.1111   0.1111
[ constraints ] ; from mdp
 8438  8440     1   0.1111   0.1111
[ bonds ]
 8438  8441     1    0.153   186188    0.153   186188
[ constraints ] ; from mdp
 8441  8442     1   0.1111   0.1111
[ constraints ] ; from mdp
 8441  8443     1   0.1111   0.1111
[ bonds ]
 8441  8444     1    0.153   186188    0.153   186188
[ constraints ] ; from mdp
 8444  8445     1   0.1111   0.1111
[ constraints ] ; from mdp
 8444  8446     1   0.1111   0.1111
[ bonds ]
 8444  8447     1   0.1528   186188   0.1528   186188
[ constraints ] ; from mdp
 8447  8448     1   0.1111   0.1111
[ constraints ] ; from mdp
 8447  8449     1   0.1111   0.1111
[ constraints ] ; from mdp
 8447  8450     1   0.1111   0.1111
[ bonds ]
 8451  8452     1    0.151   179912    0.151   179912
[ bonds ]
 8451  8456     1    0.151   179912    0.151   179912
[ bonds ]
 8451  8460     1    0.151   179912    0.151   179912
[ bonds ]
 8451  8464     1    0.151   179912    0.151   179912
[ constraints ] ; from mdp
 8452  8453     1    0.108    0.108
[ constraints ] ; from mdp
 8452  8454     1    0.108    0.108
[ constraints ] ; from mdp
 8452  8455     1    0.108    0.108
[ constraints ] ; from mdp
 8456  8457     1    0.108    0.108
[ constraints ] ; from mdp
 8456  8458     1    0.108    0.108
[ constraints ] ; from mdp
 8456  8459     1    0.108    0.108
[ constraints ] ; from mdp
 8460  8461     1    0.108    0.108
[ constraints ] ; from mdp
 8460  8462     1    0.108    0.108
[ constraints ] ; from mdp
 8460  8463     1    0.108    0.108
[ constraints ] ; from mdp
 8464  8465     1    0.108    0.108
[ constraints ] ; from mdp
 8464  8466     1    0.108    0.108
[ bonds ]
 8464  8467     1    0.153   186188    0.153   186188
[ constraints ] ; from mdp
 8467  8468     1   0.1111   0.1111
[ constraints ] ; from mdp
 8467  8469     1   0.1111   0.1111
[ bonds ]
 8467  8474     1    0.143   284512    0.143   284512
[ bonds ]
 8470  8471     1    0.148   485344    0.148   485344
[ bonds ]
 8470  8472     1    0.148   485344    0.148   485344
[ bonds ]
 8470  8473     1     0.16   225936     0.16   225936
[ bonds ]
 8470  8474     1     0.16   225936     0.16   225936
[ bonds ]
 8473  8475     1    0.143   284512    0.143   284512
[ constraints ] ; from mdp
 8475  8476     1   0.1111   0.1111
[ constraints ] ; from mdp
 8475  8477     1   0.1111   0.1111
[ bonds ]
 8475  8478     1   0.1538   186188   0.1538   186188
[ constraints ] ; from mdp
 8478  8479     1   0.1111   0.1111
[ bonds ]
 8478  8480     1    0.143   284512    0.143   284512
[ bonds ]
 8478  8486     1   0.1538   186188   0.1538   186188
[ bonds ]
 8480  8481     1   0.1334   125520   0.1334   125520
[ bonds ]
 8481  8482     1    0.122   627600    0.122   627600
[ bonds ]
 8481  8483     1   0.1522   167360   0.1522   167360
[ constraints ] ; from mdp
 8483  8484     1   0.1111   0.1111
[ constraints ] ; from mdp
 8483  8485     1   0.1111   0.1111
[ bonds ]
 8483  8495     1    0.153   186188    0.153   186188
[ constraints ] ; from mdp
 8486  8487     1   0.1111   0.1111
[ constraints ] ; from mdp
 8486  8488     1   0.1111   0.1111
[ bonds ]
 8486  8489     1    0.143   284512    0.143   284512
[ bonds ]
 8489  8490     1   0.1334   125520   0.1334   125520
[ bonds ]
 8490  8491     1    0.122   627600    0.122   627600
[ bonds ]
 8490  8492     1   0.1522   167360   0.1522   167360
[ constraints ] ; from mdp
 8492  8493     1   0.1111   0.1111
[ constraints ] ; from mdp
 8492  8494     1   0.1111   0.1111
[ bonds ]
 8492  8538     1    0.153   186188    0.153   186188
[ constraints ] ; from mdp
 8495  8496     1   0.1111   0.1111
[ constraints ] ; from mdp
 8495  8497     1   0.1111   0.1111
[ bonds ]
 8495  8498     1    0.153   186188    0.153   186188
[ constraints ] ; from mdp
 8498  8499     1   0.1111   0.1111
[ constraints ] ; from mdp
 8498  8500     1   0.1111   0.1111
[ bonds ]
 8498  8501     1    0.153   186188    0.153   186188
[ constraints ] ; from mdp
 8501  8502     1   0.1111   0.1111
[ constraints ] ; from mdp
 8501  8503     1   0.1111   0.1111
[ bonds ]
 8501  8504     1    0.153   186188    0.153   186188
[ constraints ] ; from mdp
 8504  8505     1   0.1111   0.1111
[ constraints ] ; from mdp
 8504  8506     1   0.1111   0.1111
[ bonds ]
 8504  8507     1    0.153   186188    0.153   186188
[ constraints ] ; from mdp
 8507  8508     1   0.1111   0.1111
[ constraints ] ; from mdp
 8507  8509     1   0.1111   0.1111
[ bonds ]
 8507  8510     1    0.153   186188    0.153   186188
[ constraints ] ; from mdp
 8510  8511     1   0.1111   0.1111
[ constraints ] ; from mdp
 8510  8512     1   0.1111   0.1111
[ bonds ]
 8510  8513     1    0.153   186188    0.153   186188
[ constraints ] ; from mdp
 8513  8514     1   0.1111   0.1111
[ constraints ] ; from mdp
 8513  8515     1   0.1111   0.1111
[ bonds ]
 8513  8516     1    0.153   186188    0.153   186188
[ constraints ] ; from mdp
 8516  8517     1   0.1111   0.1111
[ constraints ] ; from mdp
 8516  8518     1   0.1111   0.1111
[ bonds ]
 8516  8519     1    0.153   186188    0.153   186188
[ constraints ] ; from mdp
 8519  8520     1   0.1111   0.1111
[ constraints ] ; from mdp
 8519  8521     1   0.1111   0.1111
[ bonds ]
 8519  8522     1    0.153   186188    0.153   186188
[ constraints ] ; from mdp
 8522  8523     1   0.1111   0.1111
[ constraints ] ; from mdp
 8522  8524     1   0.1111   0.1111
[ bonds ]
 8522  8525     1    0.153   186188    0.153   186188
[ constraints ] ; from mdp
 8525  8526     1   0.1111   0.1111
[ constraints ] ; from mdp
 8525  8527     1   0.1111   0.1111
[ bonds ]
 8525  8528     1    0.153   186188    0.153   186188
[ constraints ] ; from mdp
 8528  8529     1   0.1111   0.1111
[ constraints ] ; from mdp
 8528  8530     1   0.1111   0.1111
[ bonds ]
 8528  8531     1    0.153   186188    0.153   186188
[ constraints ] ; from mdp
 8531  8532     1   0.1111   0.1111
[ constraints ] ; from mdp
 8531  8533     1   0.1111   0.1111
[ bonds ]
 8531  8534     1   0.1528   186188   0.1528   186188
[ constraints ] ; from mdp
 8534  8535     1   0.1111   0.1111
[ constraints ] ; from mdp
 8534  8536     1   0.1111   0.1111
[ constraints ] ; from mdp
 8534  8537     1   0.1111   0.1111
[ constraints ] ; from mdp
 8538  8539     1   0.1111   0.1111
[ constraints ] ; from mdp
 8538  8540     1   0.1111   0.1111
[ bonds ]
 8538  8541     1    0.153   186188    0.153   186188
[ constraints ] ; from mdp
 8541  8542     1   0.1111   0.1111
[ constraints ] ; from mdp
 8541  8543     1   0.1111   0.1111
[ bonds ]
 8541  8544     1    0.153   186188    0.153   186188
[ constraints ] ; from mdp
 8544  8545     1   0.1111   0.1111
[ constraints ] ; from mdp
 8544  8546     1   0.1111   0.1111
[ bonds ]
 8544  8547     1    0.153   186188    0.153   186188
[ constraints ] ; from mdp
 8547  8548     1   0.1111   0.1111
[ constraints ] ; from mdp
 8547  8549     1   0.1111   0.1111
[ bonds ]
 8547  8550     1    0.153   186188    0.153   186188
[ constraints ] ; from mdp
 8550  8551     1   0.1111   0.1111
[ constraints ] ; from mdp
 8550  8552     1   0.1111   0.1111
[ bonds ]
 8550  8553     1    0.153   186188    0.153   186188
[ constraints ] ; from mdp
 8553  8554     1   0.1111   0.1111
[ constraints ] ; from mdp
 8553  8555     1   0.1111   0.1111
[ bonds ]
 8553  8556     1    0.153   186188    0.153   186188
[ constraints ] ; from mdp
 8556  8557     1   0.1111   0.1111
[ constraints ] ; from mdp
 8556  8558     1   0.1111   0.1111
[ bonds ]
 8556  8559     1    0.153   186188    0.153   186188
[ constraints ] ; from mdp
 8559  8560     1   0.1111   0.1111
[ constraints ] ; from mdp
 8559  8561     1   0.1111   0.1111
[ bonds ]
 8559  8562     1    0.153   186188    0.153   186188
[ constraints ] ; from mdp
 8562  8563     1   0.1111   0.1111
[ constraints ] ; from mdp
 8562  8564     1   0.1111   0.1111
[ bonds ]
 8562  8565     1    0.153   186188    0.153   186188
[ constraints ] ; from mdp
 8565  8566     1   0.1111   0.1111
[ constraints ] ; from mdp
 8565  8567     1   0.1111   0.1111
[ bonds ]
 8565  8568     1    0.153   186188    0.153   186188
[ constraints ] ; from mdp
 8568  8569     1   0.1111   0.1111
[ constraints ] ; from mdp
 8568  8570     1   0.1111   0.1111
[ bonds ]
 8568  8571     1    0.153   186188    0.153   186188
[ constraints ] ; from mdp
 8571  8572     1   0.1111   0.1111
[ constraints ] ; from mdp
 8571  8573     1   0.1111   0.1111
[ bonds ]
 8571  8574     1    0.153   186188    0.153   186188
[ constraints ] ; from mdp
 8574  8575     1   0.1111   0.1111
[ constraints ] ; from mdp
 8574  8576     1   0.1111   0.1111
[ bonds ]
 8574  8577     1   0.1528   186188   0.1528   186188
[ constraints ] ; from mdp
 8577  8578     1   0.1111   0.1111
[ constraints ] ; from mdp
 8577  8579     1   0.1111   0.1111
[ constraints ] ; from mdp
 8577  8580     1   0.1111   0.1111
[ bonds ]
 8581  8582     1    0.151   179912    0.151   179912
[ bonds ]
 8581  8586     1    0.151   179912    0.151   179912
[ bonds ]
 8581  8590     1    0.151   179912    0.151   179912
[ bonds ]
 8581  8594     1    0.151   179912    0.151   179912
[ constraints ] ; from mdp
 8582  8583     1    0.108    0.108
[ constraints ] ; from mdp
 8582  8584     1    0.108    0.108
[ constraints ] ; from mdp
 8582  8585     1    0.108    0.108
[ constraints ] ; from mdp
 8586  8587     1    0.108    0.108
[ constraints ] ; from mdp
 8586  8588     1    0.108    0.108
[ constraints ] ; from mdp
 8586  8589     1    0.108    0.108
[ constraints ] ; from mdp
 8590  8591     1    0.108    0.108
[ constraints ] ; from mdp
 8590  8592     1    0.108    0.108
[ constraints ] ; from mdp
 8590  8593     1    0.108    0.108
[ constraints ] ; from mdp
 8594  8595     1    0.108    0.108
[ constraints ] ; from mdp
 8594  8596     1    0.108    0.108
[ bonds ]
 8594  8597     1    0.153   186188    0.153   186188
[ constraints ] ; from mdp
 8597  8598     1   0.1111   0.1111
[ constraints ] ; from mdp
 8597  8599     1   0.1111   0.1111
[ bonds ]
 8597  8604     1    0.143   284512    0.143   284512
[ bonds ]
 8600  8601     1    0.148   485344    0.148   485344
[ bonds ]
 8600  8602     1    0.148   485344    0.148   485344
[ bonds ]
 8600  8603     1     0.16   225936     0.16   225936
[ bonds ]
 8600  8604     1     0.16   225936     0.16   225936
[ bonds ]
 8603  8605     1    0.143   284512    0.143   284512
[ constraints ] ; from mdp
 8605  8606     1   0.1111   0.1111
[ constraints ] ; from mdp
 8605  8607     1   0.1111   0.1111
[ bonds ]
 8605  8608     1   0.1538   186188   0.1538   186188
[ constraints ] ; from mdp
 8608  8609     1   0.1111   0.1111
[ bonds ]
 8608  8610     1    0.143   284512    0.143   284512
[ bonds ]
 8608  8616     1   0.1538   186188   0.1538   186188
[ bonds ]
 8610  8611     1   0.1334   125520   0.1334   125520
[ bonds ]
 8611  8612     1    0.122   627600    0.122   627600
[ bonds ]
 8611  8613     1   0.1522   167360   0.1522   167360
[ constraints ] ; from mdp
 8613  8614     1   0.1111   0.1111
[ constraints ] ; from mdp
 8613  8615     1   0.1111   0.1111
[ bonds ]
 8613  8625     1    0.153   186188    0.153   186188
[ constraints ] ; from mdp
 8616  8617     1   0.1111   0.1111
[ constraints ] ; from mdp
 8616  8618     1   0.1111   0.1111
[ bonds ]
 8616  8619     1    0.143   284512    0.143   284512
[ bonds ]
 8619  8620     1   0.1334   125520   0.1334   125520
[ bonds ]
 8620  8621     1    0.122   627600    0.122   627600
[ bonds ]
 8620  8622     1   0.1522   167360   0.1522   167360
[ constraints ] ; from mdp
 8622  8623     1   0.1111   0.1111
[ constraints ] ; from mdp
 8622  8624     1   0.1111   0.1111
[ bonds ]
 8622  8668     1    0.153   186188    0.153   186188
[ constraints ] ; from mdp
 8625  8626     1   0.1111   0.1111
[ constraints ] ; from mdp
 8625  8627     1   0.1111   0.1111
[ bonds ]
 8625  8628     1    0.153   186188    0.153   186188
[ constraints ] ; from mdp
 8628  8629     1   0.1111   0.1111
[ constraints ] ; from mdp
 8628  8630     1   0.1111   0.1111
[ bonds ]
 8628  8631     1    0.153   186188    0.153   186188
[ constraints ] ; from mdp
 8631  8632     1   0.1111   0.1111
[ constraints ] ; from mdp
 8631  8633     1   0.1111   0.1111
[ bonds ]
 8631  8634     1    0.153   186188    0.153   186188
[ constraints ] ; from mdp
 8634  8635     1   0.1111   0.1111
[ constraints ] ; from mdp
 8634  8636     1   0.1111   0.1111
[ bonds ]
 8634  8637     1    0.153   186188    0.153   186188
[ constraints ] ; from mdp
 8637  8638     1   0.1111   0.1111
[ constraints ] ; from mdp
 8637  8639     1   0.1111   0.1111
[ bonds ]
 8637  8640     1    0.153   186188    0.153   186188
[ constraints ] ; from mdp
 8640  8641     1   0.1111   0.1111
[ constraints ] ; from mdp
 8640  8642     1   0.1111   0.1111
[ bonds ]
 8640  8643     1    0.153   186188    0.153   186188
[ constraints ] ; from mdp
 8643  8644     1   0.1111   0.1111
[ constraints ] ; from mdp
 8643  8645     1   0.1111   0.1111
[ bonds ]
 8643  8646     1    0.153   186188    0.153   186188
[ constraints ] ; from mdp
 8646  8647     1   0.1111   0.1111
[ constraints ] ; from mdp
 8646  8648     1   0.1111   0.1111
[ bonds ]
 8646  8649     1    0.153   186188    0.153   186188
[ constraints ] ; from mdp
 8649  8650     1   0.1111   0.1111
[ constraints ] ; from mdp
 8649  8651     1   0.1111   0.1111
[ bonds ]
 8649  8652     1    0.153   186188    0.153   186188
[ constraints ] ; from mdp
 8652  8653     1   0.1111   0.1111
[ constraints ] ; from mdp
 8652  8654     1   0.1111   0.1111
[ bonds ]
 8652  8655     1    0.153   186188    0.153   186188
[ constraints ] ; from mdp
 8655  8656     1   0.1111   0.1111
[ constraints ] ; from mdp
 8655  8657     1   0.1111   0.1111
[ bonds ]
 8655  8658     1    0.153   186188    0.153   186188
[ constraints ] ; from mdp
 8658  8659     1   0.1111   0.1111
[ constraints ] ; from mdp
 8658  8660     1   0.1111   0.1111
[ bonds ]
 8658  8661     1    0.153   186188    0.153   186188
[ constraints ] ; from mdp
 8661  8662     1   0.1111   0.1111
[ constraints ] ; from mdp
 8661  8663     1   0.1111   0.1111
[ bonds ]
 8661  8664     1   0.1528   186188   0.1528   186188
[ constraints ] ; from mdp
 8664  8665     1   0.1111   0.1111
[ constraints ] ; from mdp
 8664  8666     1   0.1111   0.1111
[ constraints ] ; from mdp
 8664  8667     1   0.1111   0.1111
[ constraints ] ; from mdp
 8668  8669     1   0.1111   0.1111
[ constraints ] ; from mdp
 8668  8670     1   0.1111   0.1111
[ bonds ]
 8668  8671     1    0.153   186188    0.153   186188
[ constraints ] ; from mdp
 8671  8672     1   0.1111   0.1111
[ constraints ] ; from mdp
 8671  8673     1   0.1111   0.1111
[ bonds ]
 8671  8674     1    0.153   186188    0.153   186188
[ constraints ] ; from mdp
 8674  8675     1   0.1111   0.1111
[ constraints ] ; from mdp
 8674  8676     1   0.1111   0.1111
[ bonds ]
 8674  8677     1    0.153   186188    0.153   186188
[ constraints ] ; from mdp
 8677  8678     1   0.1111   0.1111
[ constraints ] ; from mdp
 8677  8679     1   0.1111   0.1111
[ bonds ]
 8677  8680     1    0.153   186188    0.153   186188
[ constraints ] ; from mdp
 8680  8681     1   0.1111   0.1111
[ constraints ] ; from mdp
 8680  8682     1   0.1111   0.1111
[ bonds ]
 8680  8683     1    0.153   186188    0.153   186188
[ constraints ] ; from mdp
 8683  8684     1   0.1111   0.1111
[ constraints ] ; from mdp
 8683  8685     1   0.1111   0.1111
[ bonds ]
 8683  8686     1    0.153   186188    0.153   186188
[ constraints ] ; from mdp
 8686  8687     1   0.1111   0.1111
[ constraints ] ; from mdp
 8686  8688     1   0.1111   0.1111
[ bonds ]
 8686  8689     1    0.153   186188    0.153   186188
[ constraints ] ; from mdp
 8689  8690     1   0.1111   0.1111
[ constraints ] ; from mdp
 8689  8691     1   0.1111   0.1111
[ bonds ]
 8689  8692     1    0.153   186188    0.153   186188
[ constraints ] ; from mdp
 8692  8693     1   0.1111   0.1111
[ constraints ] ; from mdp
 8692  8694     1   0.1111   0.1111
[ bonds ]
 8692  8695     1    0.153   186188    0.153   186188
[ constraints ] ; from mdp
 8695  8696     1   0.1111   0.1111
[ constraints ] ; from mdp
 8695  8697     1   0.1111   0.1111
[ bonds ]
 8695  8698     1    0.153   186188    0.153   186188
[ constraints ] ; from mdp
 8698  8699     1   0.1111   0.1111
[ constraints ] ; from mdp
 8698  8700     1   0.1111   0.1111
[ bonds ]
 8698  8701     1    0.153   186188    0.153   186188
[ constraints ] ; from mdp
 8701  8702     1   0.1111   0.1111
[ constraints ] ; from mdp
 8701  8703     1   0.1111   0.1111
[ bonds ]
 8701  8704     1    0.153   186188    0.153   186188
[ constraints ] ; from mdp
 8704  8705     1   0.1111   0.1111
[ constraints ] ; from mdp
 8704  8706     1   0.1111   0.1111
[ bonds ]
 8704  8707     1   0.1528   186188   0.1528   186188
[ constraints ] ; from mdp
 8707  8708     1   0.1111   0.1111
[ constraints ] ; from mdp
 8707  8709     1   0.1111   0.1111
[ constraints ] ; from mdp
 8707  8710     1   0.1111   0.1111
[ bonds ]
 8711  8712     1    0.151   179912    0.151   179912
[ bonds ]
 8711  8716     1    0.151   179912    0.151   179912
[ bonds ]
 8711  8720     1    0.151   179912    0.151   179912
[ bonds ]
 8711  8724     1    0.151   179912    0.151   179912
[ constraints ] ; from mdp
 8712  8713     1    0.108    0.108
[ constraints ] ; from mdp
 8712  8714     1    0.108    0.108
[ constraints ] ; from mdp
 8712  8715     1    0.108    0.108
[ constraints ] ; from mdp
 8716  8717     1    0.108    0.108
[ constraints ] ; from mdp
 8716  8718     1    0.108    0.108
[ constraints ] ; from mdp
 8716  8719     1    0.108    0.108
[ constraints ] ; from mdp
 8720  8721     1    0.108    0.108
[ constraints ] ; from mdp
 8720  8722     1    0.108    0.108
[ constraints ] ; from mdp
 8720  8723     1    0.108    0.108
[ constraints ] ; from mdp
 8724  8725     1    0.108    0.108
[ constraints ] ; from mdp
 8724  8726     1    0.108    0.108
[ bonds ]
 8724  8727     1    0.153   186188    0.153   186188
[ constraints ] ; from mdp
 8727  8728     1   0.1111   0.1111
[ constraints ] ; from mdp
 8727  8729     1   0.1111   0.1111
[ bonds ]
 8727  8734     1    0.143   284512    0.143   284512
[ bonds ]
 8730  8731     1    0.148   485344    0.148   485344
[ bonds ]
 8730  8732     1    0.148   485344    0.148   485344
[ bonds ]
 8730  8733     1     0.16   225936     0.16   225936
[ bonds ]
 8730  8734     1     0.16   225936     0.16   225936
[ bonds ]
 8733  8735     1    0.143   284512    0.143   284512
[ constraints ] ; from mdp
 8735  8736     1   0.1111   0.1111
[ constraints ] ; from mdp
 8735  8737     1   0.1111   0.1111
[ bonds ]
 8735  8738     1   0.1538   186188   0.1538   186188
[ constraints ] ; from mdp
 8738  8739     1   0.1111   0.1111
[ bonds ]
 8738  8740     1    0.143   284512    0.143   284512
[ bonds ]
 8738  8746     1   0.1538   186188   0.1538   186188
[ bonds ]
 8740  8741     1   0.1334   125520   0.1334   125520
[ bonds ]
 8741  8742     1    0.122   627600    0.122   627600
[ bonds ]
 8741  8743     1   0.1522   167360   0.1522   167360
[ constraints ] ; from mdp
 8743  8744     1   0.1111   0.1111
[ constraints ] ; from mdp
 8743  8745     1   0.1111   0.1111
[ bonds ]
 8743  8755     1    0.153   186188    0.153   186188
[ constraints ] ; from mdp
 8746  8747     1   0.1111   0.1111
[ constraints ] ; from mdp
 8746  8748     1   0.1111   0.1111
[ bonds ]
 8746  8749     1    0.143   284512    0.143   284512
[ bonds ]
 8749  8750     1   0.1334   125520   0.1334   125520
[ bonds ]
 8750  8751     1    0.122   627600    0.122   627600
[ bonds ]
 8750  8752     1   0.1522   167360   0.1522   167360
[ constraints ] ; from mdp
 8752  8753     1   0.1111   0.1111
[ constraints ] ; from mdp
 8752  8754     1   0.1111   0.1111
[ bonds ]
 8752  8798     1    0.153   186188    0.153   186188
[ constraints ] ; from mdp
 8755  8756     1   0.1111   0.1111
[ constraints ] ; from mdp
 8755  8757     1   0.1111   0.1111
[ bonds ]
 8755  8758     1    0.153   186188    0.153   186188
[ constraints ] ; from mdp
 8758  8759     1   0.1111   0.1111
[ constraints ] ; from mdp
 8758  8760     1   0.1111   0.1111
[ bonds ]
 8758  8761     1    0.153   186188    0.153   186188
[ constraints ] ; from mdp
 8761  8762     1   0.1111   0.1111
[ constraints ] ; from mdp
 8761  8763     1   0.1111   0.1111
[ bonds ]
 8761  8764     1    0.153   186188    0.153   186188
[ constraints ] ; from mdp
 8764  8765     1   0.1111   0.1111
[ constraints ] ; from mdp
 8764  8766     1   0.1111   0.1111
[ bonds ]
 8764  8767     1    0.153   186188    0.153   186188
[ constraints ] ; from mdp
 8767  8768     1   0.1111   0.1111
[ constraints ] ; from mdp
 8767  8769     1   0.1111   0.1111
[ bonds ]
 8767  8770     1    0.153   186188    0.153   186188
[ constraints ] ; from mdp
 8770  8771     1   0.1111   0.1111
[ constraints ] ; from mdp
 8770  8772     1   0.1111   0.1111
[ bonds ]
 8770  8773     1    0.153   186188    0.153   186188
[ constraints ] ; from mdp
 8773  8774     1   0.1111   0.1111
[ constraints ] ; from mdp
 8773  8775     1   0.1111   0.1111
[ bonds ]
 8773  8776     1    0.153   186188    0.153   186188
[ constraints ] ; from mdp
 8776  8777     1   0.1111   0.1111
[ constraints ] ; from mdp
 8776  8778     1   0.1111   0.1111
[ bonds ]
 8776  8779     1    0.153   186188    0.153   186188
[ constraints ] ; from mdp
 8779  8780     1   0.1111   0.1111
[ constraints ] ; from mdp
 8779  8781     1   0.1111   0.1111
[ bonds ]
 8779  8782     1    0.153   186188    0.153   186188
[ constraints ] ; from mdp
 8782  8783     1   0.1111   0.1111
[ constraints ] ; from mdp
 8782  8784     1   0.1111   0.1111
[ bonds ]
 8782  8785     1    0.153   186188    0.153   186188
[ constraints ] ; from mdp
 8785  8786     1   0.1111   0.1111
[ constraints ] ; from mdp
 8785  8787     1   0.1111   0.1111
[ bonds ]
 8785  8788     1    0.153   186188    0.153   186188
[ constraints ] ; from mdp
 8788  8789     1   0.1111   0.1111
[ constraints ] ; from mdp
 8788  8790     1   0.1111   0.1111
[ bonds ]
 8788  8791     1    0.153   186188    0.153   186188
[ constraints ] ; from mdp
 8791  8792     1   0.1111   0.1111
[ constraints ] ; from mdp
 8791  8793     1   0.1111   0.1111
[ bonds ]
 8791  8794     1   0.1528   186188   0.1528   186188
[ constraints ] ; from mdp
 8794  8795     1   0.1111   0.1111
[ constraints ] ; from mdp
 8794  8796     1   0.1111   0.1111
[ constraints ] ; from mdp
 8794  8797     1   0.1111   0.1111
[ constraints ] ; from mdp
 8798  8799     1   0.1111   0.1111
[ constraints ] ; from mdp
 8798  8800     1   0.1111   0.1111
[ bonds ]
 8798  8801     1    0.153   186188    0.153   186188
[ constraints ] ; from mdp
 8801  8802     1   0.1111   0.1111
[ constraints ] ; from mdp
 8801  8803     1   0.1111   0.1111
[ bonds ]
 8801  8804     1    0.153   186188    0.153   186188
[ constraints ] ; from mdp
 8804  8805     1   0.1111   0.1111
[ constraints ] ; from mdp
 8804  8806     1   0.1111   0.1111
[ bonds ]
 8804  8807     1    0.153   186188    0.153   186188
[ constraints ] ; from mdp
 8807  8808     1   0.1111   0.1111
[ constraints ] ; from mdp
 8807  8809     1   0.1111   0.1111
[ bonds ]
 8807  8810     1    0.153   186188    0.153   186188
[ constraints ] ; from mdp
 8810  8811     1   0.1111   0.1111
[ constraints ] ; from mdp
 8810  8812     1   0.1111   0.1111
[ bonds ]
 8810  8813     1    0.153   186188    0.153   186188
[ constraints ] ; from mdp
 8813  8814     1   0.1111   0.1111
[ constraints ] ; from mdp
 8813  8815     1   0.1111   0.1111
[ bonds ]
 8813  8816     1    0.153   186188    0.153   186188
[ constraints ] ; from mdp
 8816  8817     1   0.1111   0.1111
[ constraints ] ; from mdp
 8816  8818     1   0.1111   0.1111
[ bonds ]
 8816  8819     1    0.153   186188    0.153   186188
[ constraints ] ; from mdp
 8819  8820     1   0.1111   0.1111
[ constraints ] ; from mdp
 8819  8821     1   0.1111   0.1111
[ bonds ]
 8819  8822     1    0.153   186188    0.153   186188
[ constraints ] ; from mdp
 8822  8823     1   0.1111   0.1111
[ constraints ] ; from mdp
 8822  8824     1   0.1111   0.1111
[ bonds ]
 8822  8825     1    0.153   186188    0.153   186188
[ constraints ] ; from mdp
 8825  8826     1   0.1111   0.1111
[ constraints ] ; from mdp
 8825  8827     1   0.1111   0.1111
[ bonds ]
 8825  8828     1    0.153   186188    0.153   186188
[ constraints ] ; from mdp
 8828  8829     1   0.1111   0.1111
[ constraints ] ; from mdp
 8828  8830     1   0.1111   0.1111
[ bonds ]
 8828  8831     1    0.153   186188    0.153   186188
[ constraints ] ; from mdp
 8831  8832     1   0.1111   0.1111
[ constraints ] ; from mdp
 8831  8833     1   0.1111   0.1111
[ bonds ]
 8831  8834     1    0.153   186188    0.153   186188
[ constraints ] ; from mdp
 8834  8835     1   0.1111   0.1111
[ constraints ] ; from mdp
 8834  8836     1   0.1111   0.1111
[ bonds ]
 8834  8837     1   0.1528   186188   0.1528   186188
[ constraints ] ; from mdp
 8837  8838     1   0.1111   0.1111
[ constraints ] ; from mdp
 8837  8839     1   0.1111   0.1111
[ constraints ] ; from mdp
 8837  8840     1   0.1111   0.1111
[ bonds ]
 8841  8842     1    0.151   179912    0.151   179912
[ bonds ]
 8841  8846     1    0.151   179912    0.151   179912
[ bonds ]
 8841  8850     1    0.151   179912    0.151   179912
[ bonds ]
 8841  8854     1    0.151   179912    0.151   179912
[ constraints ] ; from mdp
 8842  8843     1    0.108    0.108
[ constraints ] ; from mdp
 8842  8844     1    0.108    0.108
[ constraints ] ; from mdp
 8842  8845     1    0.108    0.108
[ constraints ] ; from mdp
 8846  8847     1    0.108    0.108
[ constraints ] ; from mdp
 8846  8848     1    0.108    0.108
[ constraints ] ; from mdp
 8846  8849     1    0.108    0.108
[ constraints ] ; from mdp
 8850  8851     1    0.108    0.108
[ constraints ] ; from mdp
 8850  8852     1    0.108    0.108
[ constraints ] ; from mdp
 8850  8853     1    0.108    0.108
[ constraints ] ; from mdp
 8854  8855     1    0.108    0.108
[ constraints ] ; from mdp
 8854  8856     1    0.108    0.108
[ bonds ]
 8854  8857     1    0.153   186188    0.153   186188
[ constraints ] ; from mdp
 8857  8858     1   0.1111   0.1111
[ constraints ] ; from mdp
 8857  8859     1   0.1111   0.1111
[ bonds ]
 8857  8864     1    0.143   284512    0.143   284512
[ bonds ]
 8860  8861     1    0.148   485344    0.148   485344
[ bonds ]
 8860  8862     1    0.148   485344    0.148   485344
[ bonds ]
 8860  8863     1     0.16   225936     0.16   225936
[ bonds ]
 8860  8864     1     0.16   225936     0.16   225936
[ bonds ]
 8863  8865     1    0.143   284512    0.143   284512
[ constraints ] ; from mdp
 8865  8866     1   0.1111   0.1111
[ constraints ] ; from mdp
 8865  8867     1   0.1111   0.1111
[ bonds ]
 8865  8868     1   0.1538   186188   0.1538   186188
[ constraints ] ; from mdp
 8868  8869     1   0.1111   0.1111
[ bonds ]
 8868  8870     1    0.143   284512    0.143   284512
[ bonds ]
 8868  8876     1   0.1538   186188   0.1538   186188
[ bonds ]
 8870  8871     1   0.1334   125520   0.1334   125520
[ bonds ]
 8871  8872     1    0.122   627600    0.122   627600
[ bonds ]
 8871  8873     1   0.1522   167360   0.1522   167360
[ constraints ] ; from mdp
 8873  8874     1   0.1111   0.1111
[ constraints ] ; from mdp
 8873  8875     1   0.1111   0.1111
[ bonds ]
 8873  8885     1    0.153   186188    0.153   186188
[ constraints ] ; from mdp
 8876  8877     1   0.1111   0.1111
[ constraints ] ; from mdp
 8876  8878     1   0.1111   0.1111
[ bonds ]
 8876  8879     1    0.143   284512    0.143   284512
[ bonds ]
 8879  8880     1   0.1334   125520   0.1334   125520
[ bonds ]
 8880  8881     1    0.122   627600    0.122   627600
[ bonds ]
 8880  8882     1   0.1522   167360   0.1522   167360
[ constraints ] ; from mdp
 8882  8883     1   0.1111   0.1111
[ constraints ] ; from mdp
 8882  8884     1   0.1111   0.1111
[ bonds ]
 8882  8928     1    0.153   186188    0.153   186188
[ constraints ] ; from mdp
 8885  8886     1   0.1111   0.1111
[ constraints ] ; from mdp
 8885  8887     1   0.1111   0.1111
[ bonds ]
 8885  8888     1    0.153   186188    0.153   186188
[ constraints ] ; from mdp
 8888  8889     1   0.1111   0.1111
[ constraints ] ; from mdp
 8888  8890     1   0.1111   0.1111
[ bonds ]
 8888  8891     1    0.153   186188    0.153   186188
[ constraints ] ; from mdp
 8891  8892     1   0.1111   0.1111
[ constraints ] ; from mdp
 8891  8893     1   0.1111   0.1111
[ bonds ]
 8891  8894     1    0.153   186188    0.153   186188
[ constraints ] ; from mdp
 8894  8895     1   0.1111   0.1111
[ constraints ] ; from mdp
 8894  8896     1   0.1111   0.1111
[ bonds ]
 8894  8897     1    0.153   186188    0.153   186188
[ constraints ] ; from mdp
 8897  8898     1   0.1111   0.1111
[ constraints ] ; from mdp
 8897  8899     1   0.1111   0.1111
[ bonds ]
 8897  8900     1    0.153   186188    0.153   186188
[ constraints ] ; from mdp
 8900  8901     1   0.1111   0.1111
[ constraints ] ; from mdp
 8900  8902     1   0.1111   0.1111
[ bonds ]
 8900  8903     1    0.153   186188    0.153   186188
[ constraints ] ; from mdp
 8903  8904     1   0.1111   0.1111
[ constraints ] ; from mdp
 8903  8905     1   0.1111   0.1111
[ bonds ]
 8903  8906     1    0.153   186188    0.153   186188
[ constraints ] ; from mdp
 8906  8907     1   0.1111   0.1111
[ constraints ] ; from mdp
 8906  8908     1   0.1111   0.1111
[ bonds ]
 8906  8909     1    0.153   186188    0.153   186188
[ constraints ] ; from mdp
 8909  8910     1   0.1111   0.1111
[ constraints ] ; from mdp
 8909  8911     1   0.1111   0.1111
[ bonds ]
 8909  8912     1    0.153   186188    0.153   186188
[ constraints ] ; from mdp
 8912  8913     1   0.1111   0.1111
[ constraints ] ; from mdp
 8912  8914     1   0.1111   0.1111
[ bonds ]
 8912  8915     1    0.153   186188    0.153   186188
[ constraints ] ; from mdp
 8915  8916     1   0.1111   0.1111
[ constraints ] ; from mdp
 8915  8917     1   0.1111   0.1111
[ bonds ]
 8915  8918     1    0.153   186188    0.153   186188
[ constraints ] ; from mdp
 8918  8919     1   0.1111   0.1111
[ constraints ] ; from mdp
 8918  8920     1   0.1111   0.1111
[ bonds ]
 8918  8921     1    0.153   186188    0.153   186188
[ constraints ] ; from mdp
 8921  8922     1   0.1111   0.1111
[ constraints ] ; from mdp
 8921  8923     1   0.1111   0.1111
[ bonds ]
 8921  8924     1   0.1528   186188   0.1528   186188
[ constraints ] ; from mdp
 8924  8925     1   0.1111   0.1111
[ constraints ] ; from mdp
 8924  8926     1   0.1111   0.1111
[ constraints ] ; from mdp
 8924  8927     1   0.1111   0.1111
[ constraints ] ; from mdp
 8928  8929     1   0.1111   0.1111
[ constraints ] ; from mdp
 8928  8930     1   0.1111   0.1111
[ bonds ]
 8928  8931     1    0.153   186188    0.153   186188
[ constraints ] ; from mdp
 8931  8932     1   0.1111   0.1111
[ constraints ] ; from mdp
 8931  8933     1   0.1111   0.1111
[ bonds ]
 8931  8934     1    0.153   186188    0.153   186188
[ constraints ] ; from mdp
 8934  8935     1   0.1111   0.1111
[ constraints ] ; from mdp
 8934  8936     1   0.1111   0.1111
[ bonds ]
 8934  8937     1    0.153   186188    0.153   186188
[ constraints ] ; from mdp
 8937  8938     1   0.1111   0.1111
[ constraints ] ; from mdp
 8937  8939     1   0.1111   0.1111
[ bonds ]
 8937  8940     1    0.153   186188    0.153   186188
[ constraints ] ; from mdp
 8940  8941     1   0.1111   0.1111
[ constraints ] ; from mdp
 8940  8942     1   0.1111   0.1111
[ bonds ]
 8940  8943     1    0.153   186188    0.153   186188
[ constraints ] ; from mdp
 8943  8944     1   0.1111   0.1111
[ constraints ] ; from mdp
 8943  8945     1   0.1111   0.1111
[ bonds ]
 8943  8946     1    0.153   186188    0.153   186188
[ constraints ] ; from mdp
 8946  8947     1   0.1111   0.1111
[ constraints ] ; from mdp
 8946  8948     1   0.1111   0.1111
[ bonds ]
 8946  8949     1    0.153   186188    0.153   186188
[ constraints ] ; from mdp
 8949  8950     1   0.1111   0.1111
[ constraints ] ; from mdp
 8949  8951     1   0.1111   0.1111
[ bonds ]
 8949  8952     1    0.153   186188    0.153   186188
[ constraints ] ; from mdp
 8952  8953     1   0.1111   0.1111
[ constraints ] ; from mdp
 8952  8954     1   0.1111   0.1111
[ bonds ]
 8952  8955     1    0.153   186188    0.153   186188
[ constraints ] ; from mdp
 8955  8956     1   0.1111   0.1111
[ constraints ] ; from mdp
 8955  8957     1   0.1111   0.1111
[ bonds ]
 8955  8958     1    0.153   186188    0.153   186188
[ constraints ] ; from mdp
 8958  8959     1   0.1111   0.1111
[ constraints ] ; from mdp
 8958  8960     1   0.1111   0.1111
[ bonds ]
 8958  8961     1    0.153   186188    0.153   186188
[ constraints ] ; from mdp
 8961  8962     1   0.1111   0.1111
[ constraints ] ; from mdp
 8961  8963     1   0.1111   0.1111
[ bonds ]
 8961  8964     1    0.153   186188    0.153   186188
[ constraints ] ; from mdp
 8964  8965     1   0.1111   0.1111
[ constraints ] ; from mdp
 8964  8966     1   0.1111   0.1111
[ bonds ]
 8964  8967     1   0.1528   186188   0.1528   186188
[ constraints ] ; from mdp
 8967  8968     1   0.1111   0.1111
[ constraints ] ; from mdp
 8967  8969     1   0.1111   0.1111
[ constraints ] ; from mdp
 8967  8970     1   0.1111   0.1111
[ bonds ]
 8971  8972     1    0.151   179912    0.151   179912
[ bonds ]
 8971  8976     1    0.151   179912    0.151   179912
[ bonds ]
 8971  8980     1    0.151   179912    0.151   179912
[ bonds ]
 8971  8984     1    0.151   179912    0.151   179912
[ constraints ] ; from mdp
 8972  8973     1    0.108    0.108
[ constraints ] ; from mdp
 8972  8974     1    0.108    0.108
[ constraints ] ; from mdp
 8972  8975     1    0.108    0.108
[ constraints ] ; from mdp
 8976  8977     1    0.108    0.108
[ constraints ] ; from mdp
 8976  8978     1    0.108    0.108
[ constraints ] ; from mdp
 8976  8979     1    0.108    0.108
[ constraints ] ; from mdp
 8980  8981     1    0.108    0.108
[ constraints ] ; from mdp
 8980  8982     1    0.108    0.108
[ constraints ] ; from mdp
 8980  8983     1    0.108    0.108
[ constraints ] ; from mdp
 8984  8985     1    0.108    0.108
[ constraints ] ; from mdp
 8984  8986     1    0.108    0.108
[ bonds ]
 8984  8987     1    0.153   186188    0.153   186188
[ constraints ] ; from mdp
 8987  8988     1   0.1111   0.1111
[ constraints ] ; from mdp
 8987  8989     1   0.1111   0.1111
[ bonds ]
 8987  8994     1    0.143   284512    0.143   284512
[ bonds ]
 8990  8991     1    0.148   485344    0.148   485344
[ bonds ]
 8990  8992     1    0.148   485344    0.148   485344
[ bonds ]
 8990  8993     1     0.16   225936     0.16   225936
[ bonds ]
 8990  8994     1     0.16   225936     0.16   225936
[ bonds ]
 8993  8995     1    0.143   284512    0.143   284512
[ constraints ] ; from mdp
 8995  8996     1   0.1111   0.1111
[ constraints ] ; from mdp
 8995  8997     1   0.1111   0.1111
[ bonds ]
 8995  8998     1   0.1538   186188   0.1538   186188
[ constraints ] ; from mdp
 8998  8999     1   0.1111   0.1111
[ bonds ]
 8998  9000     1    0.143   284512    0.143   284512
[ bonds ]
 8998  9006     1   0.1538   186188   0.1538   186188
[ bonds ]
 9000  9001     1   0.1334   125520   0.1334   125520
[ bonds ]
 9001  9002     1    0.122   627600    0.122   627600
[ bonds ]
 9001  9003     1   0.1522   167360   0.1522   167360
[ constraints ] ; from mdp
 9003  9004     1   0.1111   0.1111
[ constraints ] ; from mdp
 9003  9005     1   0.1111   0.1111
[ bonds ]
 9003  9015     1    0.153   186188    0.153   186188
[ constraints ] ; from mdp
 9006  9007     1   0.1111   0.1111
[ constraints ] ; from mdp
 9006  9008     1   0.1111   0.1111
[ bonds ]
 9006  9009     1    0.143   284512    0.143   284512
[ bonds ]
 9009  9010     1   0.1334   125520   0.1334   125520
[ bonds ]
 9010  9011     1    0.122   627600    0.122   627600
[ bonds ]
 9010  9012     1   0.1522   167360   0.1522   167360
[ constraints ] ; from mdp
 9012  9013     1   0.1111   0.1111
[ constraints ] ; from mdp
 9012  9014     1   0.1111   0.1111
[ bonds ]
 9012  9058     1    0.153   186188    0.153   186188
[ constraints ] ; from mdp
 9015  9016     1   0.1111   0.1111
[ constraints ] ; from mdp
 9015  9017     1   0.1111   0.1111
[ bonds ]
 9015  9018     1    0.153   186188    0.153   186188
[ constraints ] ; from mdp
 9018  9019     1   0.1111   0.1111
[ constraints ] ; from mdp
 9018  9020     1   0.1111   0.1111
[ bonds ]
 9018  9021     1    0.153   186188    0.153   186188
[ constraints ] ; from mdp
 9021  9022     1   0.1111   0.1111
[ constraints ] ; from mdp
 9021  9023     1   0.1111   0.1111
[ bonds ]
 9021  9024     1    0.153   186188    0.153   186188
[ constraints ] ; from mdp
 9024  9025     1   0.1111   0.1111
[ constraints ] ; from mdp
 9024  9026     1   0.1111   0.1111
[ bonds ]
 9024  9027     1    0.153   186188    0.153   186188
[ constraints ] ; from mdp
 9027  9028     1   0.1111   0.1111
[ constraints ] ; from mdp
 9027  9029     1   0.1111   0.1111
[ bonds ]
 9027  9030     1    0.153   186188    0.153   186188
[ constraints ] ; from mdp
 9030  9031     1   0.1111   0.1111
[ constraints ] ; from mdp
 9030  9032     1   0.1111   0.1111
[ bonds ]
 9030  9033     1    0.153   186188    0.153   186188
[ constraints ] ; from mdp
 9033  9034     1   0.1111   0.1111
[ constraints ] ; from mdp
 9033  9035     1   0.1111   0.1111
[ bonds ]
 9033  9036     1    0.153   186188    0.153   186188
[ constraints ] ; from mdp
 9036  9037     1   0.1111   0.1111
[ constraints ] ; from mdp
 9036  9038     1   0.1111   0.1111
[ bonds ]
 9036  9039     1    0.153   186188    0.153   186188
[ constraints ] ; from mdp
 9039  9040     1   0.1111   0.1111
[ constraints ] ; from mdp
 9039  9041     1   0.1111   0.1111
[ bonds ]
 9039  9042     1    0.153   186188    0.153   186188
[ constraints ] ; from mdp
 9042  9043     1   0.1111   0.1111
[ constraints ] ; from mdp
 9042  9044     1   0.1111   0.1111
[ bonds ]
 9042  9045     1    0.153   186188    0.153   186188
[ constraints ] ; from mdp
 9045  9046     1   0.1111   0.1111
[ constraints ] ; from mdp
 9045  9047     1   0.1111   0.1111
[ bonds ]
 9045  9048     1    0.153   186188    0.153   186188
[ constraints ] ; from mdp
 9048  9049     1   0.1111   0.1111
[ constraints ] ; from mdp
 9048  9050     1   0.1111   0.1111
[ bonds ]
 9048  9051     1    0.153   186188    0.153   186188
[ constraints ] ; from mdp
 9051  9052     1   0.1111   0.1111
[ constraints ] ; from mdp
 9051  9053     1   0.1111   0.1111
[ bonds ]
 9051  9054     1   0.1528   186188   0.1528   186188
[ constraints ] ; from mdp
 9054  9055     1   0.1111   0.1111
[ constraints ] ; from mdp
 9054  9056     1   0.1111   0.1111
[ constraints ] ; from mdp
 9054  9057     1   0.1111   0.1111
[ constraints ] ; from mdp
 9058  9059     1   0.1111   0.1111
[ constraints ] ; from mdp
 9058  9060     1   0.1111   0.1111
[ bonds ]
 9058  9061     1    0.153   186188    0.153   186188
[ constraints ] ; from mdp
 9061  9062     1   0.1111   0.1111
[ constraints ] ; from mdp
 9061  9063     1   0.1111   0.1111
[ bonds ]
 9061  9064     1    0.153   186188    0.153   186188
[ constraints ] ; from mdp
 9064  9065     1   0.1111   0.1111
[ constraints ] ; from mdp
 9064  9066     1   0.1111   0.1111
[ bonds ]
 9064  9067     1    0.153   186188    0.153   186188
[ constraints ] ; from mdp
 9067  9068     1   0.1111   0.1111
[ constraints ] ; from mdp
 9067  9069     1   0.1111   0.1111
[ bonds ]
 9067  9070     1    0.153   186188    0.153   186188
[ constraints ] ; from mdp
 9070  9071     1   0.1111   0.1111
[ constraints ] ; from mdp
 9070  9072     1   0.1111   0.1111
[ bonds ]
 9070  9073     1    0.153   186188    0.153   186188
[ constraints ] ; from mdp
 9073  9074     1   0.1111   0.1111
[ constraints ] ; from mdp
 9073  9075     1   0.1111   0.1111
[ bonds ]
 9073  9076     1    0.153   186188    0.153   186188
[ constraints ] ; from mdp
 9076  9077     1   0.1111   0.1111
[ constraints ] ; from mdp
 9076  9078     1   0.1111   0.1111
[ bonds ]
 9076  9079     1    0.153   186188    0.153   186188
[ constraints ] ; from mdp
 9079  9080     1   0.1111   0.1111
[ constraints ] ; from mdp
 9079  9081     1   0.1111   0.1111
[ bonds ]
 9079  9082     1    0.153   186188    0.153   186188
[ constraints ] ; from mdp
 9082  9083     1   0.1111   0.1111
[ constraints ] ; from mdp
 9082  9084     1   0.1111   0.1111
[ bonds ]
 9082  9085     1    0.153   186188    0.153   186188
[ constraints ] ; from mdp
 9085  9086     1   0.1111   0.1111
[ constraints ] ; from mdp
 9085  9087     1   0.1111   0.1111
[ bonds ]
 9085  9088     1    0.153   186188    0.153   186188
[ constraints ] ; from mdp
 9088  9089     1   0.1111   0.1111
[ constraints ] ; from mdp
 9088  9090     1   0.1111   0.1111
[ bonds ]
 9088  9091     1    0.153   186188    0.153   186188
[ constraints ] ; from mdp
 9091  9092     1   0.1111   0.1111
[ constraints ] ; from mdp
 9091  9093     1   0.1111   0.1111
[ bonds ]
 9091  9094     1    0.153   186188    0.153   186188
[ constraints ] ; from mdp
 9094  9095     1   0.1111   0.1111
[ constraints ] ; from mdp
 9094  9096     1   0.1111   0.1111
[ bonds ]
 9094  9097     1   0.1528   186188   0.1528   186188
[ constraints ] ; from mdp
 9097  9098     1   0.1111   0.1111
[ constraints ] ; from mdp
 9097  9099     1   0.1111   0.1111
[ constraints ] ; from mdp
 9097  9100     1   0.1111   0.1111
[ bonds ]
 9101  9102     1    0.151   179912    0.151   179912
[ bonds ]
 9101  9106     1    0.151   179912    0.151   179912
[ bonds ]
 9101  9110     1    0.151   179912    0.151   179912
[ bonds ]
 9101  9114     1    0.151   179912    0.151   179912
[ constraints ] ; from mdp
 9102  9103     1    0.108    0.108
[ constraints ] ; from mdp
 9102  9104     1    0.108    0.108
[ constraints ] ; from mdp
 9102  9105     1    0.108    0.108
[ constraints ] ; from mdp
 9106  9107     1    0.108    0.108
[ constraints ] ; from mdp
 9106  9108     1    0.108    0.108
[ constraints ] ; from mdp
 9106  9109     1    0.108    0.108
[ constraints ] ; from mdp
 9110  9111     1    0.108    0.108
[ constraints ] ; from mdp
 9110  9112     1    0.108    0.108
[ constraints ] ; from mdp
 9110  9113     1    0.108    0.108
[ constraints ] ; from mdp
 9114  9115     1    0.108    0.108
[ constraints ] ; from mdp
 9114  9116     1    0.108    0.108
[ bonds ]
 9114  9117     1    0.153   186188    0.153   186188
[ constraints ] ; from mdp
 9117  9118     1   0.1111   0.1111
[ constraints ] ; from mdp
 9117  9119     1   0.1111   0.1111
[ bonds ]
 9117  9124     1    0.143   284512    0.143   284512
[ bonds ]
 9120  9121     1    0.148   485344    0.148   485344
[ bonds ]
 9120  9122     1    0.148   485344    0.148   485344
[ bonds ]
 9120  9123     1     0.16   225936     0.16   225936
[ bonds ]
 9120  9124     1     0.16   225936     0.16   225936
[ bonds ]
 9123  9125     1    0.143   284512    0.143   284512
[ constraints ] ; from mdp
 9125  9126     1   0.1111   0.1111
[ constraints ] ; from mdp
 9125  9127     1   0.1111   0.1111
[ bonds ]
 9125  9128     1   0.1538   186188   0.1538   186188
[ constraints ] ; from mdp
 9128  9129     1   0.1111   0.1111
[ bonds ]
 9128  9130     1    0.143   284512    0.143   284512
[ bonds ]
 9128  9136     1   0.1538   186188   0.1538   186188
[ bonds ]
 9130  9131     1   0.1334   125520   0.1334   125520
[ bonds ]
 9131  9132     1    0.122   627600    0.122   627600
[ bonds ]
 9131  9133     1   0.1522   167360   0.1522   167360
[ constraints ] ; from mdp
 9133  9134     1   0.1111   0.1111
[ constraints ] ; from mdp
 9133  9135     1   0.1111   0.1111
[ bonds ]
 9133  9145     1    0.153   186188    0.153   186188
[ constraints ] ; from mdp
 9136  9137     1   0.1111   0.1111
[ constraints ] ; from mdp
 9136  9138     1   0.1111   0.1111
[ bonds ]
 9136  9139     1    0.143   284512    0.143   284512
[ bonds ]
 9139  9140     1   0.1334   125520   0.1334   125520
[ bonds ]
 9140  9141     1    0.122   627600    0.122   627600
[ bonds ]
 9140  9142     1   0.1522   167360   0.1522   167360
[ constraints ] ; from mdp
 9142  9143     1   0.1111   0.1111
[ constraints ] ; from mdp
 9142  9144     1   0.1111   0.1111
[ bonds ]
 9142  9188     1    0.153   186188    0.153   186188
[ constraints ] ; from mdp
 9145  9146     1   0.1111   0.1111
[ constraints ] ; from mdp
 9145  9147     1   0.1111   0.1111
[ bonds ]
 9145  9148     1    0.153   186188    0.153   186188
[ constraints ] ; from mdp
 9148  9149     1   0.1111   0.1111
[ constraints ] ; from mdp
 9148  9150     1   0.1111   0.1111
[ bonds ]
 9148  9151     1    0.153   186188    0.153   186188
[ constraints ] ; from mdp
 9151  9152     1   0.1111   0.1111
[ constraints ] ; from mdp
 9151  9153     1   0.1111   0.1111
[ bonds ]
 9151  9154     1    0.153   186188    0.153   186188
[ constraints ] ; from mdp
 9154  9155     1   0.1111   0.1111
[ constraints ] ; from mdp
 9154  9156     1   0.1111   0.1111
[ bonds ]
 9154  9157     1    0.153   186188    0.153   186188
[ constraints ] ; from mdp
 9157  9158     1   0.1111   0.1111
[ constraints ] ; from mdp
 9157  9159     1   0.1111   0.1111
[ bonds ]
 9157  9160     1    0.153   186188    0.153   186188
[ constraints ] ; from mdp
 9160  9161     1   0.1111   0.1111
[ constraints ] ; from mdp
 9160  9162     1   0.1111   0.1111
[ bonds ]
 9160  9163     1    0.153   186188    0.153   186188
[ constraints ] ; from mdp
 9163  9164     1   0.1111   0.1111
[ constraints ] ; from mdp
 9163  9165     1   0.1111   0.1111
[ bonds ]
 9163  9166     1    0.153   186188    0.153   186188
[ constraints ] ; from mdp
 9166  9167     1   0.1111   0.1111
[ constraints ] ; from mdp
 9166  9168     1   0.1111   0.1111
[ bonds ]
 9166  9169     1    0.153   186188    0.153   186188
[ constraints ] ; from mdp
 9169  9170     1   0.1111   0.1111
[ constraints ] ; from mdp
 9169  9171     1   0.1111   0.1111
[ bonds ]
 9169  9172     1    0.153   186188    0.153   186188
[ constraints ] ; from mdp
 9172  9173     1   0.1111   0.1111
[ constraints ] ; from mdp
 9172  9174     1   0.1111   0.1111
[ bonds ]
 9172  9175     1    0.153   186188    0.153   186188
[ constraints ] ; from mdp
 9175  9176     1   0.1111   0.1111
[ constraints ] ; from mdp
 9175  9177     1   0.1111   0.1111
[ bonds ]
 9175  9178     1    0.153   186188    0.153   186188
[ constraints ] ; from mdp
 9178  9179     1   0.1111   0.1111
[ constraints ] ; from mdp
 9178  9180     1   0.1111   0.1111
[ bonds ]
 9178  9181     1    0.153   186188    0.153   186188
[ constraints ] ; from mdp
 9181  9182     1   0.1111   0.1111
[ constraints ] ; from mdp
 9181  9183     1   0.1111   0.1111
[ bonds ]
 9181  9184     1   0.1528   186188   0.1528   186188
[ constraints ] ; from mdp
 9184  9185     1   0.1111   0.1111
[ constraints ] ; from mdp
 9184  9186     1   0.1111   0.1111
[ constraints ] ; from mdp
 9184  9187     1   0.1111   0.1111
[ constraints ] ; from mdp
 9188  9189     1   0.1111   0.1111
[ constraints ] ; from mdp
 9188  9190     1   0.1111   0.1111
[ bonds ]
 9188  9191     1    0.153   186188    0.153   186188
[ constraints ] ; from mdp
 9191  9192     1   0.1111   0.1111
[ constraints ] ; from mdp
 9191  9193     1   0.1111   0.1111
[ bonds ]
 9191  9194     1    0.153   186188    0.153   186188
[ constraints ] ; from mdp
 9194  9195     1   0.1111   0.1111
[ constraints ] ; from mdp
 9194  9196     1   0.1111   0.1111
[ bonds ]
 9194  9197     1    0.153   186188    0.153   186188
[ constraints ] ; from mdp
 9197  9198     1   0.1111   0.1111
[ constraints ] ; from mdp
 9197  9199     1   0.1111   0.1111
[ bonds ]
 9197  9200     1    0.153   186188    0.153   186188
[ constraints ] ; from mdp
 9200  9201     1   0.1111   0.1111
[ constraints ] ; from mdp
 9200  9202     1   0.1111   0.1111
[ bonds ]
 9200  9203     1    0.153   186188    0.153   186188
[ constraints ] ; from mdp
 9203  9204     1   0.1111   0.1111
[ constraints ] ; from mdp
 9203  9205     1   0.1111   0.1111
[ bonds ]
 9203  9206     1    0.153   186188    0.153   186188
[ constraints ] ; from mdp
 9206  9207     1   0.1111   0.1111
[ constraints ] ; from mdp
 9206  9208     1   0.1111   0.1111
[ bonds ]
 9206  9209     1    0.153   186188    0.153   186188
[ constraints ] ; from mdp
 9209  9210     1   0.1111   0.1111
[ constraints ] ; from mdp
 9209  9211     1   0.1111   0.1111
[ bonds ]
 9209  9212     1    0.153   186188    0.153   186188
[ constraints ] ; from mdp
 9212  9213     1   0.1111   0.1111
[ constraints ] ; from mdp
 9212  9214     1   0.1111   0.1111
[ bonds ]
 9212  9215     1    0.153   186188    0.153   186188
[ constraints ] ; from mdp
 9215  9216     1   0.1111   0.1111
[ constraints ] ; from mdp
 9215  9217     1   0.1111   0.1111
[ bonds ]
 9215  9218     1    0.153   186188    0.153   186188
[ constraints ] ; from mdp
 9218  9219     1   0.1111   0.1111
[ constraints ] ; from mdp
 9218  9220     1   0.1111   0.1111
[ bonds ]
 9218  9221     1    0.153   186188    0.153   186188
[ constraints ] ; from mdp
 9221  9222     1   0.1111   0.1111
[ constraints ] ; from mdp
 9221  9223     1   0.1111   0.1111
[ bonds ]
 9221  9224     1    0.153   186188    0.153   186188
[ constraints ] ; from mdp
 9224  9225     1   0.1111   0.1111
[ constraints ] ; from mdp
 9224  9226     1   0.1111   0.1111
[ bonds ]
 9224  9227     1   0.1528   186188   0.1528   186188
[ constraints ] ; from mdp
 9227  9228     1   0.1111   0.1111
[ constraints ] ; from mdp
 9227  9229     1   0.1111   0.1111
[ constraints ] ; from mdp
 9227  9230     1   0.1111   0.1111
[ bonds ]
 9231  9232     1    0.151   179912    0.151   179912
[ bonds ]
 9231  9236     1    0.151   179912    0.151   179912
[ bonds ]
 9231  9240     1    0.151   179912    0.151   179912
[ bonds ]
 9231  9244     1    0.151   179912    0.151   179912
[ constraints ] ; from mdp
 9232  9233     1    0.108    0.108
[ constraints ] ; from mdp
 9232  9234     1    0.108    0.108
[ constraints ] ; from mdp
 9232  9235     1    0.108    0.108
[ constraints ] ; from mdp
 9236  9237     1    0.108    0.108
[ constraints ] ; from mdp
 9236  9238     1    0.108    0.108
[ constraints ] ; from mdp
 9236  9239     1    0.108    0.108
[ constraints ] ; from mdp
 9240  9241     1    0.108    0.108
[ constraints ] ; from mdp
 9240  9242     1    0.108    0.108
[ constraints ] ; from mdp
 9240  9243     1    0.108    0.108
[ constraints ] ; from mdp
 9244  9245     1    0.108    0.108
[ constraints ] ; from mdp
 9244  9246     1    0.108    0.108
[ bonds ]
 9244  9247     1    0.153   186188    0.153   186188
[ constraints ] ; from mdp
 9247  9248     1   0.1111   0.1111
[ constraints ] ; from mdp
 9247  9249     1   0.1111   0.1111
[ bonds ]
 9247  9254     1    0.143   284512    0.143   284512
[ bonds ]
 9250  9251     1    0.148   485344    0.148   485344
[ bonds ]
 9250  9252     1    0.148   485344    0.148   485344
[ bonds ]
 9250  9253     1     0.16   225936     0.16   225936
[ bonds ]
 9250  9254     1     0.16   225936     0.16   225936
[ bonds ]
 9253  9255     1    0.143   284512    0.143   284512
[ constraints ] ; from mdp
 9255  9256     1   0.1111   0.1111
[ constraints ] ; from mdp
 9255  9257     1   0.1111   0.1111
[ bonds ]
 9255  9258     1   0.1538   186188   0.1538   186188
[ constraints ] ; from mdp
 9258  9259     1   0.1111   0.1111
[ bonds ]
 9258  9260     1    0.143   284512    0.143   284512
[ bonds ]
 9258  9266     1   0.1538   186188   0.1538   186188
[ bonds ]
 9260  9261     1   0.1334   125520   0.1334   125520
[ bonds ]
 9261  9262     1    0.122   627600    0.122   627600
[ bonds ]
 9261  9263     1   0.1522   167360   0.1522   167360
[ constraints ] ; from mdp
 9263  9264     1   0.1111   0.1111
[ constraints ] ; from mdp
 9263  9265     1   0.1111   0.1111
[ bonds ]
 9263  9275     1    0.153   186188    0.153   186188
[ constraints ] ; from mdp
 9266  9267     1   0.1111   0.1111
[ constraints ] ; from mdp
 9266  9268     1   0.1111   0.1111
[ bonds ]
 9266  9269     1    0.143   284512    0.143   284512
[ bonds ]
 9269  9270     1   0.1334   125520   0.1334   125520
[ bonds ]
 9270  9271     1    0.122   627600    0.122   627600
[ bonds ]
 9270  9272     1   0.1522   167360   0.1522   167360
[ constraints ] ; from mdp
 9272  9273     1   0.1111   0.1111
[ constraints ] ; from mdp
 9272  9274     1   0.1111   0.1111
[ bonds ]
 9272  9318     1    0.153   186188    0.153   186188
[ constraints ] ; from mdp
 9275  9276     1   0.1111   0.1111
[ constraints ] ; from mdp
 9275  9277     1   0.1111   0.1111
[ bonds ]
 9275  9278     1    0.153   186188    0.153   186188
[ constraints ] ; from mdp
 9278  9279     1   0.1111   0.1111
[ constraints ] ; from mdp
 9278  9280     1   0.1111   0.1111
[ bonds ]
 9278  9281     1    0.153   186188    0.153   186188
[ constraints ] ; from mdp
 9281  9282     1   0.1111   0.1111
[ constraints ] ; from mdp
 9281  9283     1   0.1111   0.1111
[ bonds ]
 9281  9284     1    0.153   186188    0.153   186188
[ constraints ] ; from mdp
 9284  9285     1   0.1111   0.1111
[ constraints ] ; from mdp
 9284  9286     1   0.1111   0.1111
[ bonds ]
 9284  9287     1    0.153   186188    0.153   186188
[ constraints ] ; from mdp
 9287  9288     1   0.1111   0.1111
[ constraints ] ; from mdp
 9287  9289     1   0.1111   0.1111
[ bonds ]
 9287  9290     1    0.153   186188    0.153   186188
[ constraints ] ; from mdp
 9290  9291     1   0.1111   0.1111
[ constraints ] ; from mdp
 9290  9292     1   0.1111   0.1111
[ bonds ]
 9290  9293     1    0.153   186188    0.153   186188
[ constraints ] ; from mdp
 9293  9294     1   0.1111   0.1111
[ constraints ] ; from mdp
 9293  9295     1   0.1111   0.1111
[ bonds ]
 9293  9296     1    0.153   186188    0.153   186188
[ constraints ] ; from mdp
 9296  9297     1   0.1111   0.1111
[ constraints ] ; from mdp
 9296  9298     1   0.1111   0.1111
[ bonds ]
 9296  9299     1    0.153   186188    0.153   186188
[ constraints ] ; from mdp
 9299  9300     1   0.1111   0.1111
[ constraints ] ; from mdp
 9299  9301     1   0.1111   0.1111
[ bonds ]
 9299  9302     1    0.153   186188    0.153   186188
[ constraints ] ; from mdp
 9302  9303     1   0.1111   0.1111
[ constraints ] ; from mdp
 9302  9304     1   0.1111   0.1111
[ bonds ]
 9302  9305     1    0.153   186188    0.153   186188
[ constraints ] ; from mdp
 9305  9306     1   0.1111   0.1111
[ constraints ] ; from mdp
 9305  9307     1   0.1111   0.1111
[ bonds ]
 9305  9308     1    0.153   186188    0.153   186188
[ constraints ] ; from mdp
 9308  9309     1   0.1111   0.1111
[ constraints ] ; from mdp
 9308  9310     1   0.1111   0.1111
[ bonds ]
 9308  9311     1    0.153   186188    0.153   186188
[ constraints ] ; from mdp
 9311  9312     1   0.1111   0.1111
[ constraints ] ; from mdp
 9311  9313     1   0.1111   0.1111
[ bonds ]
 9311  9314     1   0.1528   186188   0.1528   186188
[ constraints ] ; from mdp
 9314  9315     1   0.1111   0.1111
[ constraints ] ; from mdp
 9314  9316     1   0.1111   0.1111
[ constraints ] ; from mdp
 9314  9317     1   0.1111   0.1111
[ constraints ] ; from mdp
 9318  9319     1   0.1111   0.1111
[ constraints ] ; from mdp
 9318  9320     1   0.1111   0.1111
[ bonds ]
 9318  9321     1    0.153   186188    0.153   186188
[ constraints ] ; from mdp
 9321  9322     1   0.1111   0.1111
[ constraints ] ; from mdp
 9321  9323     1   0.1111   0.1111
[ bonds ]
 9321  9324     1    0.153   186188    0.153   186188
[ constraints ] ; from mdp
 9324  9325     1   0.1111   0.1111
[ constraints ] ; from mdp
 9324  9326     1   0.1111   0.1111
[ bonds ]
 9324  9327     1    0.153   186188    0.153   186188
[ constraints ] ; from mdp
 9327  9328     1   0.1111   0.1111
[ constraints ] ; from mdp
 9327  9329     1   0.1111   0.1111
[ bonds ]
 9327  9330     1    0.153   186188    0.153   186188
[ constraints ] ; from mdp
 9330  9331     1   0.1111   0.1111
[ constraints ] ; from mdp
 9330  9332     1   0.1111   0.1111
[ bonds ]
 9330  9333     1    0.153   186188    0.153   186188
[ constraints ] ; from mdp
 9333  9334     1   0.1111   0.1111
[ constraints ] ; from mdp
 9333  9335     1   0.1111   0.1111
[ bonds ]
 9333  9336     1    0.153   186188    0.153   186188
[ constraints ] ; from mdp
 9336  9337     1   0.1111   0.1111
[ constraints ] ; from mdp
 9336  9338     1   0.1111   0.1111
[ bonds ]
 9336  9339     1    0.153   186188    0.153   186188
[ constraints ] ; from mdp
 9339  9340     1   0.1111   0.1111
[ constraints ] ; from mdp
 9339  9341     1   0.1111   0.1111
[ bonds ]
 9339  9342     1    0.153   186188    0.153   186188
[ constraints ] ; from mdp
 9342  9343     1   0.1111   0.1111
[ constraints ] ; from mdp
 9342  9344     1   0.1111   0.1111
[ bonds ]
 9342  9345     1    0.153   186188    0.153   186188
[ constraints ] ; from mdp
 9345  9346     1   0.1111   0.1111
[ constraints ] ; from mdp
 9345  9347     1   0.1111   0.1111
[ bonds ]
 9345  9348     1    0.153   186188    0.153   186188
[ constraints ] ; from mdp
 9348  9349     1   0.1111   0.1111
[ constraints ] ; from mdp
 9348  9350     1   0.1111   0.1111
[ bonds ]
 9348  9351     1    0.153   186188    0.153   186188
[ constraints ] ; from mdp
 9351  9352     1   0.1111   0.1111
[ constraints ] ; from mdp
 9351  9353     1   0.1111   0.1111
[ bonds ]
 9351  9354     1    0.153   186188    0.153   186188
[ constraints ] ; from mdp
 9354  9355     1   0.1111   0.1111
[ constraints ] ; from mdp
 9354  9356     1   0.1111   0.1111
[ bonds ]
 9354  9357     1   0.1528   186188   0.1528   186188
[ constraints ] ; from mdp
 9357  9358     1   0.1111   0.1111
[ constraints ] ; from mdp
 9357  9359     1   0.1111   0.1111
[ constraints ] ; from mdp
 9357  9360     1   0.1111   0.1111
[ bonds ]
 9361  9362     1    0.151   179912    0.151   179912
[ bonds ]
 9361  9366     1    0.151   179912    0.151   179912
[ bonds ]
 9361  9370     1    0.151   179912    0.151   179912
[ bonds ]
 9361  9374     1    0.151   179912    0.151   179912
[ constraints ] ; from mdp
 9362  9363     1    0.108    0.108
[ constraints ] ; from mdp
 9362  9364     1    0.108    0.108
[ constraints ] ; from mdp
 9362  9365     1    0.108    0.108
[ constraints ] ; from mdp
 9366  9367     1    0.108    0.108
[ constraints ] ; from mdp
 9366  9368     1    0.108    0.108
[ constraints ] ; from mdp
 9366  9369     1    0.108    0.108
[ constraints ] ; from mdp
 9370  9371     1    0.108    0.108
[ constraints ] ; from mdp
 9370  9372     1    0.108    0.108
[ constraints ] ; from mdp
 9370  9373     1    0.108    0.108
[ constraints ] ; from mdp
 9374  9375     1    0.108    0.108
[ constraints ] ; from mdp
 9374  9376     1    0.108    0.108
[ bonds ]
 9374  9377     1    0.153   186188    0.153   186188
[ constraints ] ; from mdp
 9377  9378     1   0.1111   0.1111
[ constraints ] ; from mdp
 9377  9379     1   0.1111   0.1111
[ bonds ]
 9377  9384     1    0.143   284512    0.143   284512
[ bonds ]
 9380  9381     1    0.148   485344    0.148   485344
[ bonds ]
 9380  9382     1    0.148   485344    0.148   485344
[ bonds ]
 9380  9383     1     0.16   225936     0.16   225936
[ bonds ]
 9380  9384     1     0.16   225936     0.16   225936
[ bonds ]
 9383  9385     1    0.143   284512    0.143   284512
[ constraints ] ; from mdp
 9385  9386     1   0.1111   0.1111
[ constraints ] ; from mdp
 9385  9387     1   0.1111   0.1111
[ bonds ]
 9385  9388     1   0.1538   186188   0.1538   186188
[ constraints ] ; from mdp
 9388  9389     1   0.1111   0.1111
[ bonds ]
 9388  9390     1    0.143   284512    0.143   284512
[ bonds ]
 9388  9396     1   0.1538   186188   0.1538   186188
[ bonds ]
 9390  9391     1   0.1334   125520   0.1334   125520
[ bonds ]
 9391  9392     1    0.122   627600    0.122   627600
[ bonds ]
 9391  9393     1   0.1522   167360   0.1522   167360
[ constraints ] ; from mdp
 9393  9394     1   0.1111   0.1111
[ constraints ] ; from mdp
 9393  9395     1   0.1111   0.1111
[ bonds ]
 9393  9405     1    0.153   186188    0.153   186188
[ constraints ] ; from mdp
 9396  9397     1   0.1111   0.1111
[ constraints ] ; from mdp
 9396  9398     1   0.1111   0.1111
[ bonds ]
 9396  9399     1    0.143   284512    0.143   284512
[ bonds ]
 9399  9400     1   0.1334   125520   0.1334   125520
[ bonds ]
 9400  9401     1    0.122   627600    0.122   627600
[ bonds ]
 9400  9402     1   0.1522   167360   0.1522   167360
[ constraints ] ; from mdp
 9402  9403     1   0.1111   0.1111
[ constraints ] ; from mdp
 9402  9404     1   0.1111   0.1111
[ bonds ]
 9402  9448     1    0.153   186188    0.153   186188
[ constraints ] ; from mdp
 9405  9406     1   0.1111   0.1111
[ constraints ] ; from mdp
 9405  9407     1   0.1111   0.1111
[ bonds ]
 9405  9408     1    0.153   186188    0.153   186188
[ constraints ] ; from mdp
 9408  9409     1   0.1111   0.1111
[ constraints ] ; from mdp
 9408  9410     1   0.1111   0.1111
[ bonds ]
 9408  9411     1    0.153   186188    0.153   186188
[ constraints ] ; from mdp
 9411  9412     1   0.1111   0.1111
[ constraints ] ; from mdp
 9411  9413     1   0.1111   0.1111
[ bonds ]
 9411  9414     1    0.153   186188    0.153   186188
[ constraints ] ; from mdp
 9414  9415     1   0.1111   0.1111
[ constraints ] ; from mdp
 9414  9416     1   0.1111   0.1111
[ bonds ]
 9414  9417     1    0.153   186188    0.153   186188
[ constraints ] ; from mdp
 9417  9418     1   0.1111   0.1111
[ constraints ] ; from mdp
 9417  9419     1   0.1111   0.1111
[ bonds ]
 9417  9420     1    0.153   186188    0.153   186188
[ constraints ] ; from mdp
 9420  9421     1   0.1111   0.1111
[ constraints ] ; from mdp
 9420  9422     1   0.1111   0.1111
[ bonds ]
 9420  9423     1    0.153   186188    0.153   186188
[ constraints ] ; from mdp
 9423  9424     1   0.1111   0.1111
[ constraints ] ; from mdp
 9423  9425     1   0.1111   0.1111
[ bonds ]
 9423  9426     1    0.153   186188    0.153   186188
[ constraints ] ; from mdp
 9426  9427     1   0.1111   0.1111
[ constraints ] ; from mdp
 9426  9428     1   0.1111   0.1111
[ bonds ]
 9426  9429     1    0.153   186188    0.153   186188
[ constraints ] ; from mdp
 9429  9430     1   0.1111   0.1111
[ constraints ] ; from mdp
 9429  9431     1   0.1111   0.1111
[ bonds ]
 9429  9432     1    0.153   186188    0.153   186188
[ constraints ] ; from mdp
 9432  9433     1   0.1111   0.1111
[ constraints ] ; from mdp
 9432  9434     1   0.1111   0.1111
[ bonds ]
 9432  9435     1    0.153   186188    0.153   186188
[ constraints ] ; from mdp
 9435  9436     1   0.1111   0.1111
[ constraints ] ; from mdp
 9435  9437     1   0.1111   0.1111
[ bonds ]
 9435  9438     1    0.153   186188    0.153   186188
[ constraints ] ; from mdp
 9438  9439     1   0.1111   0.1111
[ constraints ] ; from mdp
 9438  9440     1   0.1111   0.1111
[ bonds ]
 9438  9441     1    0.153   186188    0.153   186188
[ constraints ] ; from mdp
 9441  9442     1   0.1111   0.1111
[ constraints ] ; from mdp
 9441  9443     1   0.1111   0.1111
[ bonds ]
 9441  9444     1   0.1528   186188   0.1528   186188
[ constraints ] ; from mdp
 9444  9445     1   0.1111   0.1111
[ constraints ] ; from mdp
 9444  9446     1   0.1111   0.1111
[ constraints ] ; from mdp
 9444  9447     1   0.1111   0.1111
[ constraints ] ; from mdp
 9448  9449     1   0.1111   0.1111
[ constraints ] ; from mdp
 9448  9450     1   0.1111   0.1111
[ bonds ]
 9448  9451     1    0.153   186188    0.153   186188
[ constraints ] ; from mdp
 9451  9452     1   0.1111   0.1111
[ constraints ] ; from mdp
 9451  9453     1   0.1111   0.1111
[ bonds ]
 9451  9454     1    0.153   186188    0.153   186188
[ constraints ] ; from mdp
 9454  9455     1   0.1111   0.1111
[ constraints ] ; from mdp
 9454  9456     1   0.1111   0.1111
[ bonds ]
 9454  9457     1    0.153   186188    0.153   186188
[ constraints ] ; from mdp
 9457  9458     1   0.1111   0.1111
[ constraints ] ; from mdp
 9457  9459     1   0.1111   0.1111
[ bonds ]
 9457  9460     1    0.153   186188    0.153   186188
[ constraints ] ; from mdp
 9460  9461     1   0.1111   0.1111
[ constraints ] ; from mdp
 9460  9462     1   0.1111   0.1111
[ bonds ]
 9460  9463     1    0.153   186188    0.153   186188
[ constraints ] ; from mdp
 9463  9464     1   0.1111   0.1111
[ constraints ] ; from mdp
 9463  9465     1   0.1111   0.1111
[ bonds ]
 9463  9466     1    0.153   186188    0.153   186188
[ constraints ] ; from mdp
 9466  9467     1   0.1111   0.1111
[ constraints ] ; from mdp
 9466  9468     1   0.1111   0.1111
[ bonds ]
 9466  9469     1    0.153   186188    0.153   186188
[ constraints ] ; from mdp
 9469  9470     1   0.1111   0.1111
[ constraints ] ; from mdp
 9469  9471     1   0.1111   0.1111
[ bonds ]
 9469  9472     1    0.153   186188    0.153   186188
[ constraints ] ; from mdp
 9472  9473     1   0.1111   0.1111
[ constraints ] ; from mdp
 9472  9474     1   0.1111   0.1111
[ bonds ]
 9472  9475     1    0.153   186188    0.153   186188
[ constraints ] ; from mdp
 9475  9476     1   0.1111   0.1111
[ constraints ] ; from mdp
 9475  9477     1   0.1111   0.1111
[ bonds ]
 9475  9478     1    0.153   186188    0.153   186188
[ constraints ] ; from mdp
 9478  9479     1   0.1111   0.1111
[ constraints ] ; from mdp
 9478  9480     1   0.1111   0.1111
[ bonds ]
 9478  9481     1    0.153   186188    0.153   186188
[ constraints ] ; from mdp
 9481  9482     1   0.1111   0.1111
[ constraints ] ; from mdp
 9481  9483     1   0.1111   0.1111
[ bonds ]
 9481  9484     1    0.153   186188    0.153   186188
[ constraints ] ; from mdp
 9484  9485     1   0.1111   0.1111
[ constraints ] ; from mdp
 9484  9486     1   0.1111   0.1111
[ bonds ]
 9484  9487     1   0.1528   186188   0.1528   186188
[ constraints ] ; from mdp
 9487  9488     1   0.1111   0.1111
[ constraints ] ; from mdp
 9487  9489     1   0.1111   0.1111
[ constraints ] ; from mdp
 9487  9490     1   0.1111   0.1111
[ bonds ]
 9491  9492     1    0.151   179912    0.151   179912
[ bonds ]
 9491  9496     1    0.151   179912    0.151   179912
[ bonds ]
 9491  9500     1    0.151   179912    0.151   179912
[ bonds ]
 9491  9504     1    0.151   179912    0.151   179912
[ constraints ] ; from mdp
 9492  9493     1    0.108    0.108
[ constraints ] ; from mdp
 9492  9494     1    0.108    0.108
[ constraints ] ; from mdp
 9492  9495     1    0.108    0.108
[ constraints ] ; from mdp
 9496  9497     1    0.108    0.108
[ constraints ] ; from mdp
 9496  9498     1    0.108    0.108
[ constraints ] ; from mdp
 9496  9499     1    0.108    0.108
[ constraints ] ; from mdp
 9500  9501     1    0.108    0.108
[ constraints ] ; from mdp
 9500  9502     1    0.108    0.108
[ constraints ] ; from mdp
 9500  9503     1    0.108    0.108
[ constraints ] ; from mdp
 9504  9505     1    0.108    0.108
[ constraints ] ; from mdp
 9504  9506     1    0.108    0.108
[ bonds ]
 9504  9507     1    0.153   186188    0.153   186188
[ constraints ] ; from mdp
 9507  9508     1   0.1111   0.1111
[ constraints ] ; from mdp
 9507  9509     1   0.1111   0.1111
[ bonds ]
 9507  9514     1    0.143   284512    0.143   284512
[ bonds ]
 9510  9511     1    0.148   485344    0.148   485344
[ bonds ]
 9510  9512     1    0.148   485344    0.148   485344
[ bonds ]
 9510  9513     1     0.16   225936     0.16   225936
[ bonds ]
 9510  9514     1     0.16   225936     0.16   225936
[ bonds ]
 9513  9515     1    0.143   284512    0.143   284512
[ constraints ] ; from mdp
 9515  9516     1   0.1111   0.1111
[ constraints ] ; from mdp
 9515  9517     1   0.1111   0.1111
[ bonds ]
 9515  9518     1   0.1538   186188   0.1538   186188
[ constraints ] ; from mdp
 9518  9519     1   0.1111   0.1111
[ bonds ]
 9518  9520     1    0.143   284512    0.143   284512
[ bonds ]
 9518  9526     1   0.1538   186188   0.1538   186188
[ bonds ]
 9520  9521     1   0.1334   125520   0.1334   125520
[ bonds ]
 9521  9522     1    0.122   627600    0.122   627600
[ bonds ]
 9521  9523     1   0.1522   167360   0.1522   167360
[ constraints ] ; from mdp
 9523  9524     1   0.1111   0.1111
[ constraints ] ; from mdp
 9523  9525     1   0.1111   0.1111
[ bonds ]
 9523  9535     1    0.153   186188    0.153   186188
[ constraints ] ; from mdp
 9526  9527     1   0.1111   0.1111
[ constraints ] ; from mdp
 9526  9528     1   0.1111   0.1111
[ bonds ]
 9526  9529     1    0.143   284512    0.143   284512
[ bonds ]
 9529  9530     1   0.1334   125520   0.1334   125520
[ bonds ]
 9530  9531     1    0.122   627600    0.122   627600
[ bonds ]
 9530  9532     1   0.1522   167360   0.1522   167360
[ constraints ] ; from mdp
 9532  9533     1   0.1111   0.1111
[ constraints ] ; from mdp
 9532  9534     1   0.1111   0.1111
[ bonds ]
 9532  9578     1    0.153   186188    0.153   186188
[ constraints ] ; from mdp
 9535  9536     1   0.1111   0.1111
[ constraints ] ; from mdp
 9535  9537     1   0.1111   0.1111
[ bonds ]
 9535  9538     1    0.153   186188    0.153   186188
[ constraints ] ; from mdp
 9538  9539     1   0.1111   0.1111
[ constraints ] ; from mdp
 9538  9540     1   0.1111   0.1111
[ bonds ]
 9538  9541     1    0.153   186188    0.153   186188
[ constraints ] ; from mdp
 9541  9542     1   0.1111   0.1111
[ constraints ] ; from mdp
 9541  9543     1   0.1111   0.1111
[ bonds ]
 9541  9544     1    0.153   186188    0.153   186188
[ constraints ] ; from mdp
 9544  9545     1   0.1111   0.1111
[ constraints ] ; from mdp
 9544  9546     1   0.1111   0.1111
[ bonds ]
 9544  9547     1    0.153   186188    0.153   186188
[ constraints ] ; from mdp
 9547  9548     1   0.1111   0.1111
[ constraints ] ; from mdp
 9547  9549     1   0.1111   0.1111
[ bonds ]
 9547  9550     1    0.153   186188    0.153   186188
[ constraints ] ; from mdp
 9550  9551     1   0.1111   0.1111
[ constraints ] ; from mdp
 9550  9552     1   0.1111   0.1111
[ bonds ]
 9550  9553     1    0.153   186188    0.153   186188
[ constraints ] ; from mdp
 9553  9554     1   0.1111   0.1111
[ constraints ] ; from mdp
 9553  9555     1   0.1111   0.1111
[ bonds ]
 9553  9556     1    0.153   186188    0.153   186188
[ constraints ] ; from mdp
 9556  9557     1   0.1111   0.1111
[ constraints ] ; from mdp
 9556  9558     1   0.1111   0.1111
[ bonds ]
 9556  9559     1    0.153   186188    0.153   186188
[ constraints ] ; from mdp
 9559  9560     1   0.1111   0.1111
[ constraints ] ; from mdp
 9559  9561     1   0.1111   0.1111
[ bonds ]
 9559  9562     1    0.153   186188    0.153   186188
[ constraints ] ; from mdp
 9562  9563     1   0.1111   0.1111
[ constraints ] ; from mdp
 9562  9564     1   0.1111   0.1111
[ bonds ]
 9562  9565     1    0.153   186188    0.153   186188
[ constraints ] ; from mdp
 9565  9566     1   0.1111   0.1111
[ constraints ] ; from mdp
 9565  9567     1   0.1111   0.1111
[ bonds ]
 9565  9568     1    0.153   186188    0.153   186188
[ constraints ] ; from mdp
 9568  9569     1   0.1111   0.1111
[ constraints ] ; from mdp
 9568  9570     1   0.1111   0.1111
[ bonds ]
 9568  9571     1    0.153   186188    0.153   186188
[ constraints ] ; from mdp
 9571  9572     1   0.1111   0.1111
[ constraints ] ; from mdp
 9571  9573     1   0.1111   0.1111
[ bonds ]
 9571  9574     1   0.1528   186188   0.1528   186188
[ constraints ] ; from mdp
 9574  9575     1   0.1111   0.1111
[ constraints ] ; from mdp
 9574  9576     1   0.1111   0.1111
[ constraints ] ; from mdp
 9574  9577     1   0.1111   0.1111
[ constraints ] ; from mdp
 9578  9579     1   0.1111   0.1111
[ constraints ] ; from mdp
 9578  9580     1   0.1111   0.1111
[ bonds ]
 9578  9581     1    0.153   186188    0.153   186188
[ constraints ] ; from mdp
 9581  9582     1   0.1111   0.1111
[ constraints ] ; from mdp
 9581  9583     1   0.1111   0.1111
[ bonds ]
 9581  9584     1    0.153   186188    0.153   186188
[ constraints ] ; from mdp
 9584  9585     1   0.1111   0.1111
[ constraints ] ; from mdp
 9584  9586     1   0.1111   0.1111
[ bonds ]
 9584  9587     1    0.153   186188    0.153   186188
[ constraints ] ; from mdp
 9587  9588     1   0.1111   0.1111
[ constraints ] ; from mdp
 9587  9589     1   0.1111   0.1111
[ bonds ]
 9587  9590     1    0.153   186188    0.153   186188
[ constraints ] ; from mdp
 9590  9591     1   0.1111   0.1111
[ constraints ] ; from mdp
 9590  9592     1   0.1111   0.1111
[ bonds ]
 9590  9593     1    0.153   186188    0.153   186188
[ constraints ] ; from mdp
 9593  9594     1   0.1111   0.1111
[ constraints ] ; from mdp
 9593  9595     1   0.1111   0.1111
[ bonds ]
 9593  9596     1    0.153   186188    0.153   186188
[ constraints ] ; from mdp
 9596  9597     1   0.1111   0.1111
[ constraints ] ; from mdp
 9596  9598     1   0.1111   0.1111
[ bonds ]
 9596  9599     1    0.153   186188    0.153   186188
[ constraints ] ; from mdp
 9599  9600     1   0.1111   0.1111
[ constraints ] ; from mdp
 9599  9601     1   0.1111   0.1111
[ bonds ]
 9599  9602     1    0.153   186188    0.153   186188
[ constraints ] ; from mdp
 9602  9603     1   0.1111   0.1111
[ constraints ] ; from mdp
 9602  9604     1   0.1111   0.1111
[ bonds ]
 9602  9605     1    0.153   186188    0.153   186188
[ constraints ] ; from mdp
 9605  9606     1   0.1111   0.1111
[ constraints ] ; from mdp
 9605  9607     1   0.1111   0.1111
[ bonds ]
 9605  9608     1    0.153   186188    0.153   186188
[ constraints ] ; from mdp
 9608  9609     1   0.1111   0.1111
[ constraints ] ; from mdp
 9608  9610     1   0.1111   0.1111
[ bonds ]
 9608  9611     1    0.153   186188    0.153   186188
[ constraints ] ; from mdp
 9611  9612     1   0.1111   0.1111
[ constraints ] ; from mdp
 9611  9613     1   0.1111   0.1111
[ bonds ]
 9611  9614     1    0.153   186188    0.153   186188
[ constraints ] ; from mdp
 9614  9615     1   0.1111   0.1111
[ constraints ] ; from mdp
 9614  9616     1   0.1111   0.1111
[ bonds ]
 9614  9617     1   0.1528   186188   0.1528   186188
[ constraints ] ; from mdp
 9617  9618     1   0.1111   0.1111
[ constraints ] ; from mdp
 9617  9619     1   0.1111   0.1111
[ constraints ] ; from mdp
 9617  9620     1   0.1111   0.1111
[ bonds ]
 9621  9622     1    0.151   179912    0.151   179912
[ bonds ]
 9621  9626     1    0.151   179912    0.151   179912
[ bonds ]
 9621  9630     1    0.151   179912    0.151   179912
[ bonds ]
 9621  9634     1    0.151   179912    0.151   179912
[ constraints ] ; from mdp
 9622  9623     1    0.108    0.108
[ constraints ] ; from mdp
 9622  9624     1    0.108    0.108
[ constraints ] ; from mdp
 9622  9625     1    0.108    0.108
[ constraints ] ; from mdp
 9626  9627     1    0.108    0.108
[ constraints ] ; from mdp
 9626  9628     1    0.108    0.108
[ constraints ] ; from mdp
 9626  9629     1    0.108    0.108
[ constraints ] ; from mdp
 9630  9631     1    0.108    0.108
[ constraints ] ; from mdp
 9630  9632     1    0.108    0.108
[ constraints ] ; from mdp
 9630  9633     1    0.108    0.108
[ constraints ] ; from mdp
 9634  9635     1    0.108    0.108
[ constraints ] ; from mdp
 9634  9636     1    0.108    0.108
[ bonds ]
 9634  9637     1    0.153   186188    0.153   186188
[ constraints ] ; from mdp
 9637  9638     1   0.1111   0.1111
[ constraints ] ; from mdp
 9637  9639     1   0.1111   0.1111
[ bonds ]
 9637  9644     1    0.143   284512    0.143   284512
[ bonds ]
 9640  9641     1    0.148   485344    0.148   485344
[ bonds ]
 9640  9642     1    0.148   485344    0.148   485344
[ bonds ]
 9640  9643     1     0.16   225936     0.16   225936
[ bonds ]
 9640  9644     1     0.16   225936     0.16   225936
[ bonds ]
 9643  9645     1    0.143   284512    0.143   284512
[ constraints ] ; from mdp
 9645  9646     1   0.1111   0.1111
[ constraints ] ; from mdp
 9645  9647     1   0.1111   0.1111
[ bonds ]
 9645  9648     1   0.1538   186188   0.1538   186188
[ constraints ] ; from mdp
 9648  9649     1   0.1111   0.1111
[ bonds ]
 9648  9650     1    0.143   284512    0.143   284512
[ bonds ]
 9648  9656     1   0.1538   186188   0.1538   186188
[ bonds ]
 9650  9651     1   0.1334   125520   0.1334   125520
[ bonds ]
 9651  9652     1    0.122   627600    0.122   627600
[ bonds ]
 9651  9653     1   0.1522   167360   0.1522   167360
[ constraints ] ; from mdp
 9653  9654     1   0.1111   0.1111
[ constraints ] ; from mdp
 9653  9655     1   0.1111   0.1111
[ bonds ]
 9653  9665     1    0.153   186188    0.153   186188
[ constraints ] ; from mdp
 9656  9657     1   0.1111   0.1111
[ constraints ] ; from mdp
 9656  9658     1   0.1111   0.1111
[ bonds ]
 9656  9659     1    0.143   284512    0.143   284512
[ bonds ]
 9659  9660     1   0.1334   125520   0.1334   125520
[ bonds ]
 9660  9661     1    0.122   627600    0.122   627600
[ bonds ]
 9660  9662     1   0.1522   167360   0.1522   167360
[ constraints ] ; from mdp
 9662  9663     1   0.1111   0.1111
[ constraints ] ; from mdp
 9662  9664     1   0.1111   0.1111
[ bonds ]
 9662  9708     1    0.153   186188    0.153   186188
[ constraints ] ; from mdp
 9665  9666     1   0.1111   0.1111
[ constraints ] ; from mdp
 9665  9667     1   0.1111   0.1111
[ bonds ]
 9665  9668     1    0.153   186188    0.153   186188
[ constraints ] ; from mdp
 9668  9669     1   0.1111   0.1111
[ constraints ] ; from mdp
 9668  9670     1   0.1111   0.1111
[ bonds ]
 9668  9671     1    0.153   186188    0.153   186188
[ constraints ] ; from mdp
 9671  9672     1   0.1111   0.1111
[ constraints ] ; from mdp
 9671  9673     1   0.1111   0.1111
[ bonds ]
 9671  9674     1    0.153   186188    0.153   186188
[ constraints ] ; from mdp
 9674  9675     1   0.1111   0.1111
[ constraints ] ; from mdp
 9674  9676     1   0.1111   0.1111
[ bonds ]
 9674  9677     1    0.153   186188    0.153   186188
[ constraints ] ; from mdp
 9677  9678     1   0.1111   0.1111
[ constraints ] ; from mdp
 9677  9679     1   0.1111   0.1111
[ bonds ]
 9677  9680     1    0.153   186188    0.153   186188
[ constraints ] ; from mdp
 9680  9681     1   0.1111   0.1111
[ constraints ] ; from mdp
 9680  9682     1   0.1111   0.1111
[ bonds ]
 9680  9683     1    0.153   186188    0.153   186188
[ constraints ] ; from mdp
 9683  9684     1   0.1111   0.1111
[ constraints ] ; from mdp
 9683  9685     1   0.1111   0.1111
[ bonds ]
 9683  9686     1    0.153   186188    0.153   186188
[ constraints ] ; from mdp
 9686  9687     1   0.1111   0.1111
[ constraints ] ; from mdp
 9686  9688     1   0.1111   0.1111
[ bonds ]
 9686  9689     1    0.153   186188    0.153   186188
[ constraints ] ; from mdp
 9689  9690     1   0.1111   0.1111
[ constraints ] ; from mdp
 9689  9691     1   0.1111   0.1111
[ bonds ]
 9689  9692     1    0.153   186188    0.153   186188
[ constraints ] ; from mdp
 9692  9693     1   0.1111   0.1111
[ constraints ] ; from mdp
 9692  9694     1   0.1111   0.1111
[ bonds ]
 9692  9695     1    0.153   186188    0.153   186188
[ constraints ] ; from mdp
 9695  9696     1   0.1111   0.1111
[ constraints ] ; from mdp
 9695  9697     1   0.1111   0.1111
[ bonds ]
 9695  9698     1    0.153   186188    0.153   186188
[ constraints ] ; from mdp
 9698  9699     1   0.1111   0.1111
[ constraints ] ; from mdp
 9698  9700     1   0.1111   0.1111
[ bonds ]
 9698  9701     1    0.153   186188    0.153   186188
[ constraints ] ; from mdp
 9701  9702     1   0.1111   0.1111
[ constraints ] ; from mdp
 9701  9703     1   0.1111   0.1111
[ bonds ]
 9701  9704     1   0.1528   186188   0.1528   186188
[ constraints ] ; from mdp
 9704  9705     1   0.1111   0.1111
[ constraints ] ; from mdp
 9704  9706     1   0.1111   0.1111
[ constraints ] ; from mdp
 9704  9707     1   0.1111   0.1111
[ constraints ] ; from mdp
 9708  9709     1   0.1111   0.1111
[ constraints ] ; from mdp
 9708  9710     1   0.1111   0.1111
[ bonds ]
 9708  9711     1    0.153   186188    0.153   186188
[ constraints ] ; from mdp
 9711  9712     1   0.1111   0.1111
[ constraints ] ; from mdp
 9711  9713     1   0.1111   0.1111
[ bonds ]
 9711  9714     1    0.153   186188    0.153   186188
[ constraints ] ; from mdp
 9714  9715     1   0.1111   0.1111
[ constraints ] ; from mdp
 9714  9716     1   0.1111   0.1111
[ bonds ]
 9714  9717     1    0.153   186188    0.153   186188
[ constraints ] ; from mdp
 9717  9718     1   0.1111   0.1111
[ constraints ] ; from mdp
 9717  9719     1   0.1111   0.1111
[ bonds ]
 9717  9720     1    0.153   186188    0.153   186188
[ constraints ] ; from mdp
 9720  9721     1   0.1111   0.1111
[ constraints ] ; from mdp
 9720  9722     1   0.1111   0.1111
[ bonds ]
 9720  9723     1    0.153   186188    0.153   186188
[ constraints ] ; from mdp
 9723  9724     1   0.1111   0.1111
[ constraints ] ; from mdp
 9723  9725     1   0.1111   0.1111
[ bonds ]
 9723  9726     1    0.153   186188    0.153   186188
[ constraints ] ; from mdp
 9726  9727     1   0.1111   0.1111
[ constraints ] ; from mdp
 9726  9728     1   0.1111   0.1111
[ bonds ]
 9726  9729     1    0.153   186188    0.153   186188
[ constraints ] ; from mdp
 9729  9730     1   0.1111   0.1111
[ constraints ] ; from mdp
 9729  9731     1   0.1111   0.1111
[ bonds ]
 9729  9732     1    0.153   186188    0.153   186188
[ constraints ] ; from mdp
 9732  9733     1   0.1111   0.1111
[ constraints ] ; from mdp
 9732  9734     1   0.1111   0.1111
[ bonds ]
 9732  9735     1    0.153   186188    0.153   186188
[ constraints ] ; from mdp
 9735  9736     1   0.1111   0.1111
[ constraints ] ; from mdp
 9735  9737     1   0.1111   0.1111
[ bonds ]
 9735  9738     1    0.153   186188    0.153   186188
[ constraints ] ; from mdp
 9738  9739     1   0.1111   0.1111
[ constraints ] ; from mdp
 9738  9740     1   0.1111   0.1111
[ bonds ]
 9738  9741     1    0.153   186188    0.153   186188
[ constraints ] ; from mdp
 9741  9742     1   0.1111   0.1111
[ constraints ] ; from mdp
 9741  9743     1   0.1111   0.1111
[ bonds ]
 9741  9744     1    0.153   186188    0.153   186188
[ constraints ] ; from mdp
 9744  9745     1   0.1111   0.1111
[ constraints ] ; from mdp
 9744  9746     1   0.1111   0.1111
[ bonds ]
 9744  9747     1   0.1528   186188   0.1528   186188
[ constraints ] ; from mdp
 9747  9748     1   0.1111   0.1111
[ constraints ] ; from mdp
 9747  9749     1   0.1111   0.1111
[ constraints ] ; from mdp
 9747  9750     1   0.1111   0.1111
[ bonds ]
 9751  9752     1    0.151   179912    0.151   179912
[ bonds ]
 9751  9756     1    0.151   179912    0.151   179912
[ bonds ]
 9751  9760     1    0.151   179912    0.151   179912
[ bonds ]
 9751  9764     1    0.151   179912    0.151   179912
[ constraints ] ; from mdp
 9752  9753     1    0.108    0.108
[ constraints ] ; from mdp
 9752  9754     1    0.108    0.108
[ constraints ] ; from mdp
 9752  9755     1    0.108    0.108
[ constraints ] ; from mdp
 9756  9757     1    0.108    0.108
[ constraints ] ; from mdp
 9756  9758     1    0.108    0.108
[ constraints ] ; from mdp
 9756  9759     1    0.108    0.108
[ constraints ] ; from mdp
 9760  9761     1    0.108    0.108
[ constraints ] ; from mdp
 9760  9762     1    0.108    0.108
[ constraints ] ; from mdp
 9760  9763     1    0.108    0.108
[ constraints ] ; from mdp
 9764  9765     1    0.108    0.108
[ constraints ] ; from mdp
 9764  9766     1    0.108    0.108
[ bonds ]
 9764  9767     1    0.153   186188    0.153   186188
[ constraints ] ; from mdp
 9767  9768     1   0.1111   0.1111
[ constraints ] ; from mdp
 9767  9769     1   0.1111   0.1111
[ bonds ]
 9767  9774     1    0.143   284512    0.143   284512
[ bonds ]
 9770  9771     1    0.148   485344    0.148   485344
[ bonds ]
 9770  9772     1    0.148   485344    0.148   485344
[ bonds ]
 9770  9773     1     0.16   225936     0.16   225936
[ bonds ]
 9770  9774     1     0.16   225936     0.16   225936
[ bonds ]
 9773  9775     1    0.143   284512    0.143   284512
[ constraints ] ; from mdp
 9775  9776     1   0.1111   0.1111
[ constraints ] ; from mdp
 9775  9777     1   0.1111   0.1111
[ bonds ]
 9775  9778     1   0.1538   186188   0.1538   186188
[ constraints ] ; from mdp
 9778  9779     1   0.1111   0.1111
[ bonds ]
 9778  9780     1    0.143   284512    0.143   284512
[ bonds ]
 9778  9786     1   0.1538   186188   0.1538   186188
[ bonds ]
 9780  9781     1   0.1334   125520   0.1334   125520
[ bonds ]
 9781  9782     1    0.122   627600    0.122   627600
[ bonds ]
 9781  9783     1   0.1522   167360   0.1522   167360
[ constraints ] ; from mdp
 9783  9784     1   0.1111   0.1111
[ constraints ] ; from mdp
 9783  9785     1   0.1111   0.1111
[ bonds ]
 9783  9795     1    0.153   186188    0.153   186188
[ constraints ] ; from mdp
 9786  9787     1   0.1111   0.1111
[ constraints ] ; from mdp
 9786  9788     1   0.1111   0.1111
[ bonds ]
 9786  9789     1    0.143   284512    0.143   284512
[ bonds ]
 9789  9790     1   0.1334   125520   0.1334   125520
[ bonds ]
 9790  9791     1    0.122   627600    0.122   627600
[ bonds ]
 9790  9792     1   0.1522   167360   0.1522   167360
[ constraints ] ; from mdp
 9792  9793     1   0.1111   0.1111
[ constraints ] ; from mdp
 9792  9794     1   0.1111   0.1111
[ bonds ]
 9792  9838     1    0.153   186188    0.153   186188
[ constraints ] ; from mdp
 9795  9796     1   0.1111   0.1111
[ constraints ] ; from mdp
 9795  9797     1   0.1111   0.1111
[ bonds ]
 9795  9798     1    0.153   186188    0.153   186188
[ constraints ] ; from mdp
 9798  9799     1   0.1111   0.1111
[ constraints ] ; from mdp
 9798  9800     1   0.1111   0.1111
[ bonds ]
 9798  9801     1    0.153   186188    0.153   186188
[ constraints ] ; from mdp
 9801  9802     1   0.1111   0.1111
[ constraints ] ; from mdp
 9801  9803     1   0.1111   0.1111
[ bonds ]
 9801  9804     1    0.153   186188    0.153   186188
[ constraints ] ; from mdp
 9804  9805     1   0.1111   0.1111
[ constraints ] ; from mdp
 9804  9806     1   0.1111   0.1111
[ bonds ]
 9804  9807     1    0.153   186188    0.153   186188
[ constraints ] ; from mdp
 9807  9808     1   0.1111   0.1111
[ constraints ] ; from mdp
 9807  9809     1   0.1111   0.1111
[ bonds ]
 9807  9810     1    0.153   186188    0.153   186188
[ constraints ] ; from mdp
 9810  9811     1   0.1111   0.1111
[ constraints ] ; from mdp
 9810  9812     1   0.1111   0.1111
[ bonds ]
 9810  9813     1    0.153   186188    0.153   186188
[ constraints ] ; from mdp
 9813  9814     1   0.1111   0.1111
[ constraints ] ; from mdp
 9813  9815     1   0.1111   0.1111
[ bonds ]
 9813  9816     1    0.153   186188    0.153   186188
[ constraints ] ; from mdp
 9816  9817     1   0.1111   0.1111
[ constraints ] ; from mdp
 9816  9818     1   0.1111   0.1111
[ bonds ]
 9816  9819     1    0.153   186188    0.153   186188
[ constraints ] ; from mdp
 9819  9820     1   0.1111   0.1111
[ constraints ] ; from mdp
 9819  9821     1   0.1111   0.1111
[ bonds ]
 9819  9822     1    0.153   186188    0.153   186188
[ constraints ] ; from mdp
 9822  9823     1   0.1111   0.1111
[ constraints ] ; from mdp
 9822  9824     1   0.1111   0.1111
[ bonds ]
 9822  9825     1    0.153   186188    0.153   186188
[ constraints ] ; from mdp
 9825  9826     1   0.1111   0.1111
[ constraints ] ; from mdp
 9825  9827     1   0.1111   0.1111
[ bonds ]
 9825  9828     1    0.153   186188    0.153   186188
[ constraints ] ; from mdp
 9828  9829     1   0.1111   0.1111
[ constraints ] ; from mdp
 9828  9830     1   0.1111   0.1111
[ bonds ]
 9828  9831     1    0.153   186188    0.153   186188
[ constraints ] ; from mdp
 9831  9832     1   0.1111   0.1111
[ constraints ] ; from mdp
 9831  9833     1   0.1111   0.1111
[ bonds ]
 9831  9834     1   0.1528   186188   0.1528   186188
[ constraints ] ; from mdp
 9834  9835     1   0.1111   0.1111
[ constraints ] ; from mdp
 9834  9836     1   0.1111   0.1111
[ constraints ] ; from mdp
 9834  9837     1   0.1111   0.1111
[ constraints ] ; from mdp
 9838  9839     1   0.1111   0.1111
[ constraints ] ; from mdp
 9838  9840     1   0.1111   0.1111
[ bonds ]
 9838  9841     1    0.153   186188    0.153   186188
[ constraints ] ; from mdp
 9841  9842     1   0.1111   0.1111
[ constraints ] ; from mdp
 9841  9843     1   0.1111   0.1111
[ bonds ]
 9841  9844     1    0.153   186188    0.153   186188
[ constraints ] ; from mdp
 9844  9845     1   0.1111   0.1111
[ constraints ] ; from mdp
 9844  9846     1   0.1111   0.1111
[ bonds ]
 9844  9847     1    0.153   186188    0.153   186188
[ constraints ] ; from mdp
 9847  9848     1   0.1111   0.1111
[ constraints ] ; from mdp
 9847  9849     1   0.1111   0.1111
[ bonds ]
 9847  9850     1    0.153   186188    0.153   186188
[ constraints ] ; from mdp
 9850  9851     1   0.1111   0.1111
[ constraints ] ; from mdp
 9850  9852     1   0.1111   0.1111
[ bonds ]
 9850  9853     1    0.153   186188    0.153   186188
[ constraints ] ; from mdp
 9853  9854     1   0.1111   0.1111
[ constraints ] ; from mdp
 9853  9855     1   0.1111   0.1111
[ bonds ]
 9853  9856     1    0.153   186188    0.153   186188
[ constraints ] ; from mdp
 9856  9857     1   0.1111   0.1111
[ constraints ] ; from mdp
 9856  9858     1   0.1111   0.1111
[ bonds ]
 9856  9859     1    0.153   186188    0.153   186188
[ constraints ] ; from mdp
 9859  9860     1   0.1111   0.1111
[ constraints ] ; from mdp
 9859  9861     1   0.1111   0.1111
[ bonds ]
 9859  9862     1    0.153   186188    0.153   186188
[ constraints ] ; from mdp
 9862  9863     1   0.1111   0.1111
[ constraints ] ; from mdp
 9862  9864     1   0.1111   0.1111
[ bonds ]
 9862  9865     1    0.153   186188    0.153   186188
[ constraints ] ; from mdp
 9865  9866     1   0.1111   0.1111
[ constraints ] ; from mdp
 9865  9867     1   0.1111   0.1111
[ bonds ]
 9865  9868     1    0.153   186188    0.153   186188
[ constraints ] ; from mdp
 9868  9869     1   0.1111   0.1111
[ constraints ] ; from mdp
 9868  9870     1   0.1111   0.1111
[ bonds ]
 9868  9871     1    0.153   186188    0.153   186188
[ constraints ] ; from mdp
 9871  9872     1   0.1111   0.1111
[ constraints ] ; from mdp
 9871  9873     1   0.1111   0.1111
[ bonds ]
 9871  9874     1    0.153   186188    0.153   186188
[ constraints ] ; from mdp
 9874  9875     1   0.1111   0.1111
[ constraints ] ; from mdp
 9874  9876     1   0.1111   0.1111
[ bonds ]
 9874  9877     1   0.1528   186188   0.1528   186188
[ constraints ] ; from mdp
 9877  9878     1   0.1111   0.1111
[ constraints ] ; from mdp
 9877  9879     1   0.1111   0.1111
[ constraints ] ; from mdp
 9877  9880     1   0.1111   0.1111
[ bonds ]
 9881  9882     1    0.151   179912    0.151   179912
[ bonds ]
 9881  9886     1    0.151   179912    0.151   179912
[ bonds ]
 9881  9890     1    0.151   179912    0.151   179912
[ bonds ]
 9881  9894     1    0.151   179912    0.151   179912
[ constraints ] ; from mdp
 9882  9883     1    0.108    0.108
[ constraints ] ; from mdp
 9882  9884     1    0.108    0.108
[ constraints ] ; from mdp
 9882  9885     1    0.108    0.108
[ constraints ] ; from mdp
 9886  9887     1    0.108    0.108
[ constraints ] ; from mdp
 9886  9888     1    0.108    0.108
[ constraints ] ; from mdp
 9886  9889     1    0.108    0.108
[ constraints ] ; from mdp
 9890  9891     1    0.108    0.108
[ constraints ] ; from mdp
 9890  9892     1    0.108    0.108
[ constraints ] ; from mdp
 9890  9893     1    0.108    0.108
[ constraints ] ; from mdp
 9894  9895     1    0.108    0.108
[ constraints ] ; from mdp
 9894  9896     1    0.108    0.108
[ bonds ]
 9894  9897     1    0.153   186188    0.153   186188
[ constraints ] ; from mdp
 9897  9898     1   0.1111   0.1111
[ constraints ] ; from mdp
 9897  9899     1   0.1111   0.1111
[ bonds ]
 9897  9904     1    0.143   284512    0.143   284512
[ bonds ]
 9900  9901     1    0.148   485344    0.148   485344
[ bonds ]
 9900  9902     1    0.148   485344    0.148   485344
[ bonds ]
 9900  9903     1     0.16   225936     0.16   225936
[ bonds ]
 9900  9904     1     0.16   225936     0.16   225936
[ bonds ]
 9903  9905     1    0.143   284512    0.143   284512
[ constraints ] ; from mdp
 9905  9906     1   0.1111   0.1111
[ constraints ] ; from mdp
 9905  9907     1   0.1111   0.1111
[ bonds ]
 9905  9908     1   0.1538   186188   0.1538   186188
[ constraints ] ; from mdp
 9908  9909     1   0.1111   0.1111
[ bonds ]
 9908  9910     1    0.143   284512    0.143   284512
[ bonds ]
 9908  9916     1   0.1538   186188   0.1538   186188
[ bonds ]
 9910  9911     1   0.1334   125520   0.1334   125520
[ bonds ]
 9911  9912     1    0.122   627600    0.122   627600
[ bonds ]
 9911  9913     1   0.1522   167360   0.1522   167360
[ constraints ] ; from mdp
 9913  9914     1   0.1111   0.1111
[ constraints ] ; from mdp
 9913  9915     1   0.1111   0.1111
[ bonds ]
 9913  9925     1    0.153   186188    0.153   186188
[ constraints ] ; from mdp
 9916  9917     1   0.1111   0.1111
[ constraints ] ; from mdp
 9916  9918     1   0.1111   0.1111
[ bonds ]
 9916  9919     1    0.143   284512    0.143   284512
[ bonds ]
 9919  9920     1   0.1334   125520   0.1334   125520
[ bonds ]
 9920  9921     1    0.122   627600    0.122   627600
[ bonds ]
 9920  9922     1   0.1522   167360   0.1522   167360
[ constraints ] ; from mdp
 9922  9923     1   0.1111   0.1111
[ constraints ] ; from mdp
 9922  9924     1   0.1111   0.1111
[ bonds ]
 9922  9968     1    0.153   186188    0.153   186188
[ constraints ] ; from mdp
 9925  9926     1   0.1111   0.1111
[ constraints ] ; from mdp
 9925  9927     1   0.1111   0.1111
[ bonds ]
 9925  9928     1    0.153   186188    0.153   186188
[ constraints ] ; from mdp
 9928  9929     1   0.1111   0.1111
[ constraints ] ; from mdp
 9928  9930     1   0.1111   0.1111
[ bonds ]
 9928  9931     1    0.153   186188    0.153   186188
[ constraints ] ; from mdp
 9931  9932     1   0.1111   0.1111
[ constraints ] ; from mdp
 9931  9933     1   0.1111   0.1111
[ bonds ]
 9931  9934     1    0.153   186188    0.153   186188
[ constraints ] ; from mdp
 9934  9935     1   0.1111   0.1111
[ constraints ] ; from mdp
 9934  9936     1   0.1111   0.1111
[ bonds ]
 9934  9937     1    0.153   186188    0.153   186188
[ constraints ] ; from mdp
 9937  9938     1   0.1111   0.1111
[ constraints ] ; from mdp
 9937  9939     1   0.1111   0.1111
[ bonds ]
 9937  9940     1    0.153   186188    0.153   186188
[ constraints ] ; from mdp
 9940  9941     1   0.1111   0.1111
[ constraints ] ; from mdp
 9940  9942     1   0.1111   0.1111
[ bonds ]
 9940  9943     1    0.153   186188    0.153   186188
[ constraints ] ; from mdp
 9943  9944     1   0.1111   0.1111
[ constraints ] ; from mdp
 9943  9945     1   0.1111   0.1111
[ bonds ]
 9943  9946     1    0.153   186188    0.153   186188
[ constraints ] ; from mdp
 9946  9947     1   0.1111   0.1111
[ constraints ] ; from mdp
 9946  9948     1   0.1111   0.1111
[ bonds ]
 9946  9949     1    0.153   186188    0.153   186188
[ constraints ] ; from mdp
 9949  9950     1   0.1111   0.1111
[ constraints ] ; from mdp
 9949  9951     1   0.1111   0.1111
[ bonds ]
 9949  9952     1    0.153   186188    0.153   186188
[ constraints ] ; from mdp
 9952  9953     1   0.1111   0.1111
[ constraints ] ; from mdp
 9952  9954     1   0.1111   0.1111
[ bonds ]
 9952  9955     1    0.153   186188    0.153   186188
[ constraints ] ; from mdp
 9955  9956     1   0.1111   0.1111
[ constraints ] ; from mdp
 9955  9957     1   0.1111   0.1111
[ bonds ]
 9955  9958     1    0.153   186188    0.153   186188
[ constraints ] ; from mdp
 9958  9959     1   0.1111   0.1111
[ constraints ] ; from mdp
 9958  9960     1   0.1111   0.1111
[ bonds ]
 9958  9961     1    0.153   186188    0.153   186188
[ constraints ] ; from mdp
 9961  9962     1   0.1111   0.1111
[ constraints ] ; from mdp
 9961  9963     1   0.1111   0.1111
[ bonds ]
 9961  9964     1   0.1528   186188   0.1528   186188
[ constraints ] ; from mdp
 9964  9965     1   0.1111   0.1111
[ constraints ] ; from mdp
 9964  9966     1   0.1111   0.1111
[ constraints ] ; from mdp
 9964  9967     1   0.1111   0.1111
[ constraints ] ; from mdp
 9968  9969     1   0.1111   0.1111
[ constraints ] ; from mdp
 9968  9970     1   0.1111   0.1111
[ bonds ]
 9968  9971     1    0.153   186188    0.153   186188
[ constraints ] ; from mdp
 9971  9972     1   0.1111   0.1111
[ constraints ] ; from mdp
 9971  9973     1   0.1111   0.1111
[ bonds ]
 9971  9974     1    0.153   186188    0.153   186188
[ constraints ] ; from mdp
 9974  9975     1   0.1111   0.1111
[ constraints ] ; from mdp
 9974  9976     1   0.1111   0.1111
[ bonds ]
 9974  9977     1    0.153   186188    0.153   186188
[ constraints ] ; from mdp
 9977  9978     1   0.1111   0.1111
[ constraints ] ; from mdp
 9977  9979     1   0.1111   0.1111
[ bonds ]
 9977  9980     1    0.153   186188    0.153   186188
[ constraints ] ; from mdp
 9980  9981     1   0.1111   0.1111
[ constraints ] ; from mdp
 9980  9982     1   0.1111   0.1111
[ bonds ]
 9980  9983     1    0.153   186188    0.153   186188
[ constraints ] ; from mdp
 9983  9984     1   0.1111   0.1111
[ constraints ] ; from mdp
 9983  9985     1   0.1111   0.1111
[ bonds ]
 9983  9986     1    0.153   186188    0.153   186188
[ constraints ] ; from mdp
 9986  9987     1   0.1111   0.1111
[ constraints ] ; from mdp
 9986  9988     1   0.1111   0.1111
[ bonds ]
 9986  9989     1    0.153   186188    0.153   186188
[ constraints ] ; from mdp
 9989  9990     1   0.1111   0.1111
[ constraints ] ; from mdp
 9989  9991     1   0.1111   0.1111
[ bonds ]
 9989  9992     1    0.153   186188    0.153   186188
[ constraints ] ; from mdp
 9992  9993     1   0.1111   0.1111
[ constraints ] ; from mdp
 9992  9994     1   0.1111   0.1111
[ bonds ]
 9992  9995     1    0.153   186188    0.153   186188
[ constraints ] ; from mdp
 9995  9996     1   0.1111   0.1111
[ constraints ] ; from mdp
 9995  9997     1   0.1111   0.1111
[ bonds ]
 9995  9998     1    0.153   186188    0.153   186188
[ constraints ] ; from mdp
 9998  9999     1   0.1111   0.1111
[ constraints ] ; from mdp
 9998 10000     1   0.1111   0.1111
[ bonds ]
 9998 10001     1    0.153   186188    0.153   186188
[ constraints ] ; from mdp
10001 10002     1   0.1111   0.1111
[ constraints ] ; from mdp
10001 10003     1   0.1111   0.1111
[ bonds ]
10001 10004     1    0.153   186188    0.153   186188
[ constraints ] ; from mdp
10004 10005     1   0.1111   0.1111
[ constraints ] ; from mdp
10004 10006     1   0.1111   0.1111
[ bonds ]
10004 10007     1   0.1528   186188   0.1528   186188
[ constraints ] ; from mdp
10007 10008     1   0.1111   0.1111
[ constraints ] ; from mdp
10007 10009     1   0.1111   0.1111
[ constraints ] ; from mdp
10007 10010     1   0.1111   0.1111
[ bonds ]
10011 10012     1    0.151   179912    0.151   179912
[ bonds ]
10011 10016     1    0.151   179912    0.151   179912
[ bonds ]
10011 10020     1    0.151   179912    0.151   179912
[ bonds ]
10011 10024     1    0.151   179912    0.151   179912
[ constraints ] ; from mdp
10012 10013     1    0.108    0.108
[ constraints ] ; from mdp
10012 10014     1    0.108    0.108
[ constraints ] ; from mdp
10012 10015     1    0.108    0.108
[ constraints ] ; from mdp
10016 10017     1    0.108    0.108
[ constraints ] ; from mdp
10016 10018     1    0.108    0.108
[ constraints ] ; from mdp
10016 10019     1    0.108    0.108
[ constraints ] ; from mdp
10020 10021     1    0.108    0.108
[ constraints ] ; from mdp
10020 10022     1    0.108    0.108
[ constraints ] ; from mdp
10020 10023     1    0.108    0.108
[ constraints ] ; from mdp
10024 10025     1    0.108    0.108
[ constraints ] ; from mdp
10024 10026     1    0.108    0.108
[ bonds ]
10024 10027     1    0.153   186188    0.153   186188
[ constraints ] ; from mdp
10027 10028     1   0.1111   0.1111
[ constraints ] ; from mdp
10027 10029     1   0.1111   0.1111
[ bonds ]
10027 10034     1    0.143   284512    0.143   284512
[ bonds ]
10030 10031     1    0.148   485344    0.148   485344
[ bonds ]
10030 10032     1    0.148   485344    0.148   485344
[ bonds ]
10030 10033     1     0.16   225936     0.16   225936
[ bonds ]
10030 10034     1     0.16   225936     0.16   225936
[ bonds ]
10033 10035     1    0.143   284512    0.143   284512
[ constraints ] ; from mdp
10035 10036     1   0.1111   0.1111
[ constraints ] ; from mdp
10035 10037     1   0.1111   0.1111
[ bonds ]
10035 10038     1   0.1538   186188   0.1538   186188
[ constraints ] ; from mdp
10038 10039     1   0.1111   0.1111
[ bonds ]
10038 10040     1    0.143   284512    0.143   284512
[ bonds ]
10038 10046     1   0.1538   186188   0.1538   186188
[ bonds ]
10040 10041     1   0.1334   125520   0.1334   125520
[ bonds ]
10041 10042     1    0.122   627600    0.122   627600
[ bonds ]
10041 10043     1   0.1522   167360   0.1522   167360
[ constraints ] ; from mdp
10043 10044     1   0.1111   0.1111
[ constraints ] ; from mdp
10043 10045     1   0.1111   0.1111
[ bonds ]
10043 10055     1    0.153   186188    0.153   186188
[ constraints ] ; from mdp
10046 10047     1   0.1111   0.1111
[ constraints ] ; from mdp
10046 10048     1   0.1111   0.1111
[ bonds ]
10046 10049     1    0.143   284512    0.143   284512
[ bonds ]
10049 10050     1   0.1334   125520   0.1334   125520
[ bonds ]
10050 10051     1    0.122   627600    0.122   627600
[ bonds ]
10050 10052     1   0.1522   167360   0.1522   167360
[ constraints ] ; from mdp
10052 10053     1   0.1111   0.1111
[ constraints ] ; from mdp
10052 10054     1   0.1111   0.1111
[ bonds ]
10052 10098     1    0.153   186188    0.153   186188
[ constraints ] ; from mdp
10055 10056     1   0.1111   0.1111
[ constraints ] ; from mdp
10055 10057     1   0.1111   0.1111
[ bonds ]
10055 10058     1    0.153   186188    0.153   186188
[ constraints ] ; from mdp
10058 10059     1   0.1111   0.1111
[ constraints ] ; from mdp
10058 10060     1   0.1111   0.1111
[ bonds ]
10058 10061     1    0.153   186188    0.153   186188
[ constraints ] ; from mdp
10061 10062     1   0.1111   0.1111
[ constraints ] ; from mdp
10061 10063     1   0.1111   0.1111
[ bonds ]
10061 10064     1    0.153   186188    0.153   186188
[ constraints ] ; from mdp
10064 10065     1   0.1111   0.1111
[ constraints ] ; from mdp
10064 10066     1   0.1111   0.1111
[ bonds ]
10064 10067     1    0.153   186188    0.153   186188
[ constraints ] ; from mdp
10067 10068     1   0.1111   0.1111
[ constraints ] ; from mdp
10067 10069     1   0.1111   0.1111
[ bonds ]
10067 10070     1    0.153   186188    0.153   186188
[ constraints ] ; from mdp
10070 10071     1   0.1111   0.1111
[ constraints ] ; from mdp
10070 10072     1   0.1111   0.1111
[ bonds ]
10070 10073     1    0.153   186188    0.153   186188
[ constraints ] ; from mdp
10073 10074     1   0.1111   0.1111
[ constraints ] ; from mdp
10073 10075     1   0.1111   0.1111
[ bonds ]
10073 10076     1    0.153   186188    0.153   186188
[ constraints ] ; from mdp
10076 10077     1   0.1111   0.1111
[ constraints ] ; from mdp
10076 10078     1   0.1111   0.1111
[ bonds ]
10076 10079     1    0.153   186188    0.153   186188
[ constraints ] ; from mdp
10079 10080     1   0.1111   0.1111
[ constraints ] ; from mdp
10079 10081     1   0.1111   0.1111
[ bonds ]
10079 10082     1    0.153   186188    0.153   186188
[ constraints ] ; from mdp
10082 10083     1   0.1111   0.1111
[ constraints ] ; from mdp
10082 10084     1   0.1111   0.1111
[ bonds ]
10082 10085     1    0.153   186188    0.153   186188
[ constraints ] ; from mdp
10085 10086     1   0.1111   0.1111
[ constraints ] ; from mdp
10085 10087     1   0.1111   0.1111
[ bonds ]
10085 10088     1    0.153   186188    0.153   186188
[ constraints ] ; from mdp
10088 10089     1   0.1111   0.1111
[ constraints ] ; from mdp
10088 10090     1   0.1111   0.1111
[ bonds ]
10088 10091     1    0.153   186188    0.153   186188
[ constraints ] ; from mdp
10091 10092     1   0.1111   0.1111
[ constraints ] ; from mdp
10091 10093     1   0.1111   0.1111
[ bonds ]
10091 10094     1   0.1528   186188   0.1528   186188
[ constraints ] ; from mdp
10094 10095     1   0.1111   0.1111
[ constraints ] ; from mdp
10094 10096     1   0.1111   0.1111
[ constraints ] ; from mdp
10094 10097     1   0.1111   0.1111
[ constraints ] ; from mdp
10098 10099     1   0.1111   0.1111
[ constraints ] ; from mdp
10098 10100     1   0.1111   0.1111
[ bonds ]
10098 10101     1    0.153   186188    0.153   186188
[ constraints ] ; from mdp
10101 10102     1   0.1111   0.1111
[ constraints ] ; from mdp
10101 10103     1   0.1111   0.1111
[ bonds ]
10101 10104     1    0.153   186188    0.153   186188
[ constraints ] ; from mdp
10104 10105     1   0.1111   0.1111
[ constraints ] ; from mdp
10104 10106     1   0.1111   0.1111
[ bonds ]
10104 10107     1    0.153   186188    0.153   186188
[ constraints ] ; from mdp
10107 10108     1   0.1111   0.1111
[ constraints ] ; from mdp
10107 10109     1   0.1111   0.1111
[ bonds ]
10107 10110     1    0.153   186188    0.153   186188
[ constraints ] ; from mdp
10110 10111     1   0.1111   0.1111
[ constraints ] ; from mdp
10110 10112     1   0.1111   0.1111
[ bonds ]
10110 10113     1    0.153   186188    0.153   186188
[ constraints ] ; from mdp
10113 10114     1   0.1111   0.1111
[ constraints ] ; from mdp
10113 10115     1   0.1111   0.1111
[ bonds ]
10113 10116     1    0.153   186188    0.153   186188
[ constraints ] ; from mdp
10116 10117     1   0.1111   0.1111
[ constraints ] ; from mdp
10116 10118     1   0.1111   0.1111
[ bonds ]
10116 10119     1    0.153   186188    0.153   186188
[ constraints ] ; from mdp
10119 10120     1   0.1111   0.1111
[ constraints ] ; from mdp
10119 10121     1   0.1111   0.1111
[ bonds ]
10119 10122     1    0.153   186188    0.153   186188
[ constraints ] ; from mdp
10122 10123     1   0.1111   0.1111
[ constraints ] ; from mdp
10122 10124     1   0.1111   0.1111
[ bonds ]
10122 10125     1    0.153   186188    0.153   186188
[ constraints ] ; from mdp
10125 10126     1   0.1111   0.1111
[ constraints ] ; from mdp
10125 10127     1   0.1111   0.1111
[ bonds ]
10125 10128     1    0.153   186188    0.153   186188
[ constraints ] ; from mdp
10128 10129     1   0.1111   0.1111
[ constraints ] ; from mdp
10128 10130     1   0.1111   0.1111
[ bonds ]
10128 10131     1    0.153   186188    0.153   186188
[ constraints ] ; from mdp
10131 10132     1   0.1111   0.1111
[ constraints ] ; from mdp
10131 10133     1   0.1111   0.1111
[ bonds ]
10131 10134     1    0.153   186188    0.153   186188
[ constraints ] ; from mdp
10134 10135     1   0.1111   0.1111
[ constraints ] ; from mdp
10134 10136     1   0.1111   0.1111
[ bonds ]
10134 10137     1   0.1528   186188   0.1528   186188
[ constraints ] ; from mdp
10137 10138     1   0.1111   0.1111
[ constraints ] ; from mdp
10137 10139     1   0.1111   0.1111
[ constraints ] ; from mdp
10137 10140     1   0.1111   0.1111
[ bonds ]
10141 10142     1    0.151   179912    0.151   179912
[ bonds ]
10141 10146     1    0.151   179912    0.151   179912
[ bonds ]
10141 10150     1    0.151   179912    0.151   179912
[ bonds ]
10141 10154     1    0.151   179912    0.151   179912
[ constraints ] ; from mdp
10142 10143     1    0.108    0.108
[ constraints ] ; from mdp
10142 10144     1    0.108    0.108
[ constraints ] ; from mdp
10142 10145     1    0.108    0.108
[ constraints ] ; from mdp
10146 10147     1    0.108    0.108
[ constraints ] ; from mdp
10146 10148     1    0.108    0.108
[ constraints ] ; from mdp
10146 10149     1    0.108    0.108
[ constraints ] ; from mdp
10150 10151     1    0.108    0.108
[ constraints ] ; from mdp
10150 10152     1    0.108    0.108
[ constraints ] ; from mdp
10150 10153     1    0.108    0.108
[ constraints ] ; from mdp
10154 10155     1    0.108    0.108
[ constraints ] ; from mdp
10154 10156     1    0.108    0.108
[ bonds ]
10154 10157     1    0.153   186188    0.153   186188
[ constraints ] ; from mdp
10157 10158     1   0.1111   0.1111
[ constraints ] ; from mdp
10157 10159     1   0.1111   0.1111
[ bonds ]
10157 10164     1    0.143   284512    0.143   284512
[ bonds ]
10160 10161     1    0.148   485344    0.148   485344
[ bonds ]
10160 10162     1    0.148   485344    0.148   485344
[ bonds ]
10160 10163     1     0.16   225936     0.16   225936
[ bonds ]
10160 10164     1     0.16   225936     0.16   225936
[ bonds ]
10163 10165     1    0.143   284512    0.143   284512
[ constraints ] ; from mdp
10165 10166     1   0.1111   0.1111
[ constraints ] ; from mdp
10165 10167     1   0.1111   0.1111
[ bonds ]
10165 10168     1   0.1538   186188   0.1538   186188
[ constraints ] ; from mdp
10168 10169     1   0.1111   0.1111
[ bonds ]
10168 10170     1    0.143   284512    0.143   284512
[ bonds ]
10168 10176     1   0.1538   186188   0.1538   186188
[ bonds ]
10170 10171     1   0.1334   125520   0.1334   125520
[ bonds ]
10171 10172     1    0.122   627600    0.122   627600
[ bonds ]
10171 10173     1   0.1522   167360   0.1522   167360
[ constraints ] ; from mdp
10173 10174     1   0.1111   0.1111
[ constraints ] ; from mdp
10173 10175     1   0.1111   0.1111
[ bonds ]
10173 10185     1    0.153   186188    0.153   186188
[ constraints ] ; from mdp
10176 10177     1   0.1111   0.1111
[ constraints ] ; from mdp
10176 10178     1   0.1111   0.1111
[ bonds ]
10176 10179     1    0.143   284512    0.143   284512
[ bonds ]
10179 10180     1   0.1334   125520   0.1334   125520
[ bonds ]
10180 10181     1    0.122   627600    0.122   627600
[ bonds ]
10180 10182     1   0.1522   167360   0.1522   167360
[ constraints ] ; from mdp
10182 10183     1   0.1111   0.1111
[ constraints ] ; from mdp
10182 10184     1   0.1111   0.1111
[ bonds ]
10182 10228     1    0.153   186188    0.153   186188
[ constraints ] ; from mdp
10185 10186     1   0.1111   0.1111
[ constraints ] ; from mdp
10185 10187     1   0.1111   0.1111
[ bonds ]
10185 10188     1    0.153   186188    0.153   186188
[ constraints ] ; from mdp
10188 10189     1   0.1111   0.1111
[ constraints ] ; from mdp
10188 10190     1   0.1111   0.1111
[ bonds ]
10188 10191     1    0.153   186188    0.153   186188
[ constraints ] ; from mdp
10191 10192     1   0.1111   0.1111
[ constraints ] ; from mdp
10191 10193     1   0.1111   0.1111
[ bonds ]
10191 10194     1    0.153   186188    0.153   186188
[ constraints ] ; from mdp
10194 10195     1   0.1111   0.1111
[ constraints ] ; from mdp
10194 10196     1   0.1111   0.1111
[ bonds ]
10194 10197     1    0.153   186188    0.153   186188
[ constraints ] ; from mdp
10197 10198     1   0.1111   0.1111
[ constraints ] ; from mdp
10197 10199     1   0.1111   0.1111
[ bonds ]
10197 10200     1    0.153   186188    0.153   186188
[ constraints ] ; from mdp
10200 10201     1   0.1111   0.1111
[ constraints ] ; from mdp
10200 10202     1   0.1111   0.1111
[ bonds ]
10200 10203     1    0.153   186188    0.153   186188
[ constraints ] ; from mdp
10203 10204     1   0.1111   0.1111
[ constraints ] ; from mdp
10203 10205     1   0.1111   0.1111
[ bonds ]
10203 10206     1    0.153   186188    0.153   186188
[ constraints ] ; from mdp
10206 10207     1   0.1111   0.1111
[ constraints ] ; from mdp
10206 10208     1   0.1111   0.1111
[ bonds ]
10206 10209     1    0.153   186188    0.153   186188
[ constraints ] ; from mdp
10209 10210     1   0.1111   0.1111
[ constraints ] ; from mdp
10209 10211     1   0.1111   0.1111
[ bonds ]
10209 10212     1    0.153   186188    0.153   186188
[ constraints ] ; from mdp
10212 10213     1   0.1111   0.1111
[ constraints ] ; from mdp
10212 10214     1   0.1111   0.1111
[ bonds ]
10212 10215     1    0.153   186188    0.153   186188
[ constraints ] ; from mdp
10215 10216     1   0.1111   0.1111
[ constraints ] ; from mdp
10215 10217     1   0.1111   0.1111
[ bonds ]
10215 10218     1    0.153   186188    0.153   186188
[ constraints ] ; from mdp
10218 10219     1   0.1111   0.1111
[ constraints ] ; from mdp
10218 10220     1   0.1111   0.1111
[ bonds ]
10218 10221     1    0.153   186188    0.153   186188
[ constraints ] ; from mdp
10221 10222     1   0.1111   0.1111
[ constraints ] ; from mdp
10221 10223     1   0.1111   0.1111
[ bonds ]
10221 10224     1   0.1528   186188   0.1528   186188
[ constraints ] ; from mdp
10224 10225     1   0.1111   0.1111
[ constraints ] ; from mdp
10224 10226     1   0.1111   0.1111
[ constraints ] ; from mdp
10224 10227     1   0.1111   0.1111
[ constraints ] ; from mdp
10228 10229     1   0.1111   0.1111
[ constraints ] ; from mdp
10228 10230     1   0.1111   0.1111
[ bonds ]
10228 10231     1    0.153   186188    0.153   186188
[ constraints ] ; from mdp
10231 10232     1   0.1111   0.1111
[ constraints ] ; from mdp
10231 10233     1   0.1111   0.1111
[ bonds ]
10231 10234     1    0.153   186188    0.153   186188
[ constraints ] ; from mdp
10234 10235     1   0.1111   0.1111
[ constraints ] ; from mdp
10234 10236     1   0.1111   0.1111
[ bonds ]
10234 10237     1    0.153   186188    0.153   186188
[ constraints ] ; from mdp
10237 10238     1   0.1111   0.1111
[ constraints ] ; from mdp
10237 10239     1   0.1111   0.1111
[ bonds ]
10237 10240     1    0.153   186188    0.153   186188
[ constraints ] ; from mdp
10240 10241     1   0.1111   0.1111
[ constraints ] ; from mdp
10240 10242     1   0.1111   0.1111
[ bonds ]
10240 10243     1    0.153   186188    0.153   186188
[ constraints ] ; from mdp
10243 10244     1   0.1111   0.1111
[ constraints ] ; from mdp
10243 10245     1   0.1111   0.1111
[ bonds ]
10243 10246     1    0.153   186188    0.153   186188
[ constraints ] ; from mdp
10246 10247     1   0.1111   0.1111
[ constraints ] ; from mdp
10246 10248     1   0.1111   0.1111
[ bonds ]
10246 10249     1    0.153   186188    0.153   186188
[ constraints ] ; from mdp
10249 10250     1   0.1111   0.1111
[ constraints ] ; from mdp
10249 10251     1   0.1111   0.1111
[ bonds ]
10249 10252     1    0.153   186188    0.153   186188
[ constraints ] ; from mdp
10252 10253     1   0.1111   0.1111
[ constraints ] ; from mdp
10252 10254     1   0.1111   0.1111
[ bonds ]
10252 10255     1    0.153   186188    0.153   186188
[ constraints ] ; from mdp
10255 10256     1   0.1111   0.1111
[ constraints ] ; from mdp
10255 10257     1   0.1111   0.1111
[ bonds ]
10255 10258     1    0.153   186188    0.153   186188
[ constraints ] ; from mdp
10258 10259     1   0.1111   0.1111
[ constraints ] ; from mdp
10258 10260     1   0.1111   0.1111
[ bonds ]
10258 10261     1    0.153   186188    0.153   186188
[ constraints ] ; from mdp
10261 10262     1   0.1111   0.1111
[ constraints ] ; from mdp
10261 10263     1   0.1111   0.1111
[ bonds ]
10261 10264     1    0.153   186188    0.153   186188
[ constraints ] ; from mdp
10264 10265     1   0.1111   0.1111
[ constraints ] ; from mdp
10264 10266     1   0.1111   0.1111
[ bonds ]
10264 10267     1   0.1528   186188   0.1528   186188
[ constraints ] ; from mdp
10267 10268     1   0.1111   0.1111
[ constraints ] ; from mdp
10267 10269     1   0.1111   0.1111
[ constraints ] ; from mdp
10267 10270     1   0.1111   0.1111
[ bonds ]
10271 10272     1    0.151   179912    0.151   179912
[ bonds ]
10271 10276     1    0.151   179912    0.151   179912
[ bonds ]
10271 10280     1    0.151   179912    0.151   179912
[ bonds ]
10271 10284     1    0.151   179912    0.151   179912
[ constraints ] ; from mdp
10272 10273     1    0.108    0.108
[ constraints ] ; from mdp
10272 10274     1    0.108    0.108
[ constraints ] ; from mdp
10272 10275     1    0.108    0.108
[ constraints ] ; from mdp
10276 10277     1    0.108    0.108
[ constraints ] ; from mdp
10276 10278     1    0.108    0.108
[ constraints ] ; from mdp
10276 10279     1    0.108    0.108
[ constraints ] ; from mdp
10280 10281     1    0.108    0.108
[ constraints ] ; from mdp
10280 10282     1    0.108    0.108
[ constraints ] ; from mdp
10280 10283     1    0.108    0.108
[ constraints ] ; from mdp
10284 10285     1    0.108    0.108
[ constraints ] ; from mdp
10284 10286     1    0.108    0.108
[ bonds ]
10284 10287     1    0.153   186188    0.153   186188
[ constraints ] ; from mdp
10287 10288     1   0.1111   0.1111
[ constraints ] ; from mdp
10287 10289     1   0.1111   0.1111
[ bonds ]
10287 10294     1    0.143   284512    0.143   284512
[ bonds ]
10290 10291     1    0.148   485344    0.148   485344
[ bonds ]
10290 10292     1    0.148   485344    0.148   485344
[ bonds ]
10290 10293     1     0.16   225936     0.16   225936
[ bonds ]
10290 10294     1     0.16   225936     0.16   225936
[ bonds ]
10293 10295     1    0.143   284512    0.143   284512
[ constraints ] ; from mdp
10295 10296     1   0.1111   0.1111
[ constraints ] ; from mdp
10295 10297     1   0.1111   0.1111
[ bonds ]
10295 10298     1   0.1538   186188   0.1538   186188
[ constraints ] ; from mdp
10298 10299     1   0.1111   0.1111
[ bonds ]
10298 10300     1    0.143   284512    0.143   284512
[ bonds ]
10298 10306     1   0.1538   186188   0.1538   186188
[ bonds ]
10300 10301     1   0.1334   125520   0.1334   125520
[ bonds ]
10301 10302     1    0.122   627600    0.122   627600
[ bonds ]
10301 10303     1   0.1522   167360   0.1522   167360
[ constraints ] ; from mdp
10303 10304     1   0.1111   0.1111
[ constraints ] ; from mdp
10303 10305     1   0.1111   0.1111
[ bonds ]
10303 10315     1    0.153   186188    0.153   186188
[ constraints ] ; from mdp
10306 10307     1   0.1111   0.1111
[ constraints ] ; from mdp
10306 10308     1   0.1111   0.1111
[ bonds ]
10306 10309     1    0.143   284512    0.143   284512
[ bonds ]
10309 10310     1   0.1334   125520   0.1334   125520
[ bonds ]
10310 10311     1    0.122   627600    0.122   627600
[ bonds ]
10310 10312     1   0.1522   167360   0.1522   167360
[ constraints ] ; from mdp
10312 10313     1   0.1111   0.1111
[ constraints ] ; from mdp
10312 10314     1   0.1111   0.1111
[ bonds ]
10312 10358     1    0.153   186188    0.153   186188
[ constraints ] ; from mdp
10315 10316     1   0.1111   0.1111
[ constraints ] ; from mdp
10315 10317     1   0.1111   0.1111
[ bonds ]
10315 10318     1    0.153   186188    0.153   186188
[ constraints ] ; from mdp
10318 10319     1   0.1111   0.1111
[ constraints ] ; from mdp
10318 10320     1   0.1111   0.1111
[ bonds ]
10318 10321     1    0.153   186188    0.153   186188
[ constraints ] ; from mdp
10321 10322     1   0.1111   0.1111
[ constraints ] ; from mdp
10321 10323     1   0.1111   0.1111
[ bonds ]
10321 10324     1    0.153   186188    0.153   186188
[ constraints ] ; from mdp
10324 10325     1   0.1111   0.1111
[ constraints ] ; from mdp
10324 10326     1   0.1111   0.1111
[ bonds ]
10324 10327     1    0.153   186188    0.153   186188
[ constraints ] ; from mdp
10327 10328     1   0.1111   0.1111
[ constraints ] ; from mdp
10327 10329     1   0.1111   0.1111
[ bonds ]
10327 10330     1    0.153   186188    0.153   186188
[ constraints ] ; from mdp
10330 10331     1   0.1111   0.1111
[ constraints ] ; from mdp
10330 10332     1   0.1111   0.1111
[ bonds ]
10330 10333     1    0.153   186188    0.153   186188
[ constraints ] ; from mdp
10333 10334     1   0.1111   0.1111
[ constraints ] ; from mdp
10333 10335     1   0.1111   0.1111
[ bonds ]
10333 10336     1    0.153   186188    0.153   186188
[ constraints ] ; from mdp
10336 10337     1   0.1111   0.1111
[ constraints ] ; from mdp
10336 10338     1   0.1111   0.1111
[ bonds ]
10336 10339     1    0.153   186188    0.153   186188
[ constraints ] ; from mdp
10339 10340     1   0.1111   0.1111
[ constraints ] ; from mdp
10339 10341     1   0.1111   0.1111
[ bonds ]
10339 10342     1    0.153   186188    0.153   186188
[ constraints ] ; from mdp
10342 10343     1   0.1111   0.1111
[ constraints ] ; from mdp
10342 10344     1   0.1111   0.1111
[ bonds ]
10342 10345     1    0.153   186188    0.153   186188
[ constraints ] ; from mdp
10345 10346     1   0.1111   0.1111
[ constraints ] ; from mdp
10345 10347     1   0.1111   0.1111
[ bonds ]
10345 10348     1    0.153   186188    0.153   186188
[ constraints ] ; from mdp
10348 10349     1   0.1111   0.1111
[ constraints ] ; from mdp
10348 10350     1   0.1111   0.1111
[ bonds ]
10348 10351     1    0.153   186188    0.153   186188
[ constraints ] ; from mdp
10351 10352     1   0.1111   0.1111
[ constraints ] ; from mdp
10351 10353     1   0.1111   0.1111
[ bonds ]
10351 10354     1   0.1528   186188   0.1528   186188
[ constraints ] ; from mdp
10354 10355     1   0.1111   0.1111
[ constraints ] ; from mdp
10354 10356     1   0.1111   0.1111
[ constraints ] ; from mdp
10354 10357     1   0.1111   0.1111
[ constraints ] ; from mdp
10358 10359     1   0.1111   0.1111
[ constraints ] ; from mdp
10358 10360     1   0.1111   0.1111
[ bonds ]
10358 10361     1    0.153   186188    0.153   186188
[ constraints ] ; from mdp
10361 10362     1   0.1111   0.1111
[ constraints ] ; from mdp
10361 10363     1   0.1111   0.1111
[ bonds ]
10361 10364     1    0.153   186188    0.153   186188
[ constraints ] ; from mdp
10364 10365     1   0.1111   0.1111
[ constraints ] ; from mdp
10364 10366     1   0.1111   0.1111
[ bonds ]
10364 10367     1    0.153   186188    0.153   186188
[ constraints ] ; from mdp
10367 10368     1   0.1111   0.1111
[ constraints ] ; from mdp
10367 10369     1   0.1111   0.1111
[ bonds ]
10367 10370     1    0.153   186188    0.153   186188
[ constraints ] ; from mdp
10370 10371     1   0.1111   0.1111
[ constraints ] ; from mdp
10370 10372     1   0.1111   0.1111
[ bonds ]
10370 10373     1    0.153   186188    0.153   186188
[ constraints ] ; from mdp
10373 10374     1   0.1111   0.1111
[ constraints ] ; from mdp
10373 10375     1   0.1111   0.1111
[ bonds ]
10373 10376     1    0.153   186188    0.153   186188
[ constraints ] ; from mdp
10376 10377     1   0.1111   0.1111
[ constraints ] ; from mdp
10376 10378     1   0.1111   0.1111
[ bonds ]
10376 10379     1    0.153   186188    0.153   186188
[ constraints ] ; from mdp
10379 10380     1   0.1111   0.1111
[ constraints ] ; from mdp
10379 10381     1   0.1111   0.1111
[ bonds ]
10379 10382     1    0.153   186188    0.153   186188
[ constraints ] ; from mdp
10382 10383     1   0.1111   0.1111
[ constraints ] ; from mdp
10382 10384     1   0.1111   0.1111
[ bonds ]
10382 10385     1    0.153   186188    0.153   186188
[ constraints ] ; from mdp
10385 10386     1   0.1111   0.1111
[ constraints ] ; from mdp
10385 10387     1   0.1111   0.1111
[ bonds ]
10385 10388     1    0.153   186188    0.153   186188
[ constraints ] ; from mdp
10388 10389     1   0.1111   0.1111
[ constraints ] ; from mdp
10388 10390     1   0.1111   0.1111
[ bonds ]
10388 10391     1    0.153   186188    0.153   186188
[ constraints ] ; from mdp
10391 10392     1   0.1111   0.1111
[ constraints ] ; from mdp
10391 10393     1   0.1111   0.1111
[ bonds ]
10391 10394     1    0.153   186188    0.153   186188
[ constraints ] ; from mdp
10394 10395     1   0.1111   0.1111
[ constraints ] ; from mdp
10394 10396     1   0.1111   0.1111
[ bonds ]
10394 10397     1   0.1528   186188   0.1528   186188
[ constraints ] ; from mdp
10397 10398     1   0.1111   0.1111
[ constraints ] ; from mdp
10397 10399     1   0.1111   0.1111
[ constraints ] ; from mdp
10397 10400     1   0.1111   0.1111
[ bonds ]
10401 10402     1    0.151   179912    0.151   179912
[ bonds ]
10401 10406     1    0.151   179912    0.151   179912
[ bonds ]
10401 10410     1    0.151   179912    0.151   179912
[ bonds ]
10401 10414     1    0.151   179912    0.151   179912
[ constraints ] ; from mdp
10402 10403     1    0.108    0.108
[ constraints ] ; from mdp
10402 10404     1    0.108    0.108
[ constraints ] ; from mdp
10402 10405     1    0.108    0.108
[ constraints ] ; from mdp
10406 10407     1    0.108    0.108
[ constraints ] ; from mdp
10406 10408     1    0.108    0.108
[ constraints ] ; from mdp
10406 10409     1    0.108    0.108
[ constraints ] ; from mdp
10410 10411     1    0.108    0.108
[ constraints ] ; from mdp
10410 10412     1    0.108    0.108
[ constraints ] ; from mdp
10410 10413     1    0.108    0.108
[ constraints ] ; from mdp
10414 10415     1    0.108    0.108
[ constraints ] ; from mdp
10414 10416     1    0.108    0.108
[ bonds ]
10414 10417     1    0.153   186188    0.153   186188
[ constraints ] ; from mdp
10417 10418     1   0.1111   0.1111
[ constraints ] ; from mdp
10417 10419     1   0.1111   0.1111
[ bonds ]
10417 10424     1    0.143   284512    0.143   284512
[ bonds ]
10420 10421     1    0.148   485344    0.148   485344
[ bonds ]
10420 10422     1    0.148   485344    0.148   485344
[ bonds ]
10420 10423     1     0.16   225936     0.16   225936
[ bonds ]
10420 10424     1     0.16   225936     0.16   225936
[ bonds ]
10423 10425     1    0.143   284512    0.143   284512
[ constraints ] ; from mdp
10425 10426     1   0.1111   0.1111
[ constraints ] ; from mdp
10425 10427     1   0.1111   0.1111
[ bonds ]
10425 10428     1   0.1538   186188   0.1538   186188
[ constraints ] ; from mdp
10428 10429     1   0.1111   0.1111
[ bonds ]
10428 10430     1    0.143   284512    0.143   284512
[ bonds ]
10428 10436     1   0.1538   186188   0.1538   186188
[ bonds ]
10430 10431     1   0.1334   125520   0.1334   125520
[ bonds ]
10431 10432     1    0.122   627600    0.122   627600
[ bonds ]
10431 10433     1   0.1522   167360   0.1522   167360
[ constraints ] ; from mdp
10433 10434     1   0.1111   0.1111
[ constraints ] ; from mdp
10433 10435     1   0.1111   0.1111
[ bonds ]
10433 10445     1    0.153   186188    0.153   186188
[ constraints ] ; from mdp
10436 10437     1   0.1111   0.1111
[ constraints ] ; from mdp
10436 10438     1   0.1111   0.1111
[ bonds ]
10436 10439     1    0.143   284512    0.143   284512
[ bonds ]
10439 10440     1   0.1334   125520   0.1334   125520
[ bonds ]
10440 10441     1    0.122   627600    0.122   627600
[ bonds ]
10440 10442     1   0.1522   167360   0.1522   167360
[ constraints ] ; from mdp
10442 10443     1   0.1111   0.1111
[ constraints ] ; from mdp
10442 10444     1   0.1111   0.1111
[ bonds ]
10442 10488     1    0.153   186188    0.153   186188
[ constraints ] ; from mdp
10445 10446     1   0.1111   0.1111
[ constraints ] ; from mdp
10445 10447     1   0.1111   0.1111
[ bonds ]
10445 10448     1    0.153   186188    0.153   186188
[ constraints ] ; from mdp
10448 10449     1   0.1111   0.1111
[ constraints ] ; from mdp
10448 10450     1   0.1111   0.1111
[ bonds ]
10448 10451     1    0.153   186188    0.153   186188
[ constraints ] ; from mdp
10451 10452     1   0.1111   0.1111
[ constraints ] ; from mdp
10451 10453     1   0.1111   0.1111
[ bonds ]
10451 10454     1    0.153   186188    0.153   186188
[ constraints ] ; from mdp
10454 10455     1   0.1111   0.1111
[ constraints ] ; from mdp
10454 10456     1   0.1111   0.1111
[ bonds ]
10454 10457     1    0.153   186188    0.153   186188
[ constraints ] ; from mdp
10457 10458     1   0.1111   0.1111
[ constraints ] ; from mdp
10457 10459     1   0.1111   0.1111
[ bonds ]
10457 10460     1    0.153   186188    0.153   186188
[ constraints ] ; from mdp
10460 10461     1   0.1111   0.1111
[ constraints ] ; from mdp
10460 10462     1   0.1111   0.1111
[ bonds ]
10460 10463     1    0.153   186188    0.153   186188
[ constraints ] ; from mdp
10463 10464     1   0.1111   0.1111
[ constraints ] ; from mdp
10463 10465     1   0.1111   0.1111
[ bonds ]
10463 10466     1    0.153   186188    0.153   186188
[ constraints ] ; from mdp
10466 10467     1   0.1111   0.1111
[ constraints ] ; from mdp
10466 10468     1   0.1111   0.1111
[ bonds ]
10466 10469     1    0.153   186188    0.153   186188
[ constraints ] ; from mdp
10469 10470     1   0.1111   0.1111
[ constraints ] ; from mdp
10469 10471     1   0.1111   0.1111
[ bonds ]
10469 10472     1    0.153   186188    0.153   186188
[ constraints ] ; from mdp
10472 10473     1   0.1111   0.1111
[ constraints ] ; from mdp
10472 10474     1   0.1111   0.1111
[ bonds ]
10472 10475     1    0.153   186188    0.153   186188
[ constraints ] ; from mdp
10475 10476     1   0.1111   0.1111
[ constraints ] ; from mdp
10475 10477     1   0.1111   0.1111
[ bonds ]
10475 10478     1    0.153   186188    0.153   186188
[ constraints ] ; from mdp
10478 10479     1   0.1111   0.1111
[ constraints ] ; from mdp
10478 10480     1   0.1111   0.1111
[ bonds ]
10478 10481     1    0.153   186188    0.153   186188
[ constraints ] ; from mdp
10481 10482     1   0.1111   0.1111
[ constraints ] ; from mdp
10481 10483     1   0.1111   0.1111
[ bonds ]
10481 10484     1   0.1528   186188   0.1528   186188
[ constraints ] ; from mdp
10484 10485     1   0.1111   0.1111
[ constraints ] ; from mdp
10484 10486     1   0.1111   0.1111
[ constraints ] ; from mdp
10484 10487     1   0.1111   0.1111
[ constraints ] ; from mdp
10488 10489     1   0.1111   0.1111
[ constraints ] ; from mdp
10488 10490     1   0.1111   0.1111
[ bonds ]
10488 10491     1    0.153   186188    0.153   186188
[ constraints ] ; from mdp
10491 10492     1   0.1111   0.1111
[ constraints ] ; from mdp
10491 10493     1   0.1111   0.1111
[ bonds ]
10491 10494     1    0.153   186188    0.153   186188
[ constraints ] ; from mdp
10494 10495     1   0.1111   0.1111
[ constraints ] ; from mdp
10494 10496     1   0.1111   0.1111
[ bonds ]
10494 10497     1    0.153   186188    0.153   186188
[ constraints ] ; from mdp
10497 10498     1   0.1111   0.1111
[ constraints ] ; from mdp
10497 10499     1   0.1111   0.1111
[ bonds ]
10497 10500     1    0.153   186188    0.153   186188
[ constraints ] ; from mdp
10500 10501     1   0.1111   0.1111
[ constraints ] ; from mdp
10500 10502     1   0.1111   0.1111
[ bonds ]
10500 10503     1    0.153   186188    0.153   186188
[ constraints ] ; from mdp
10503 10504     1   0.1111   0.1111
[ constraints ] ; from mdp
10503 10505     1   0.1111   0.1111
[ bonds ]
10503 10506     1    0.153   186188    0.153   186188
[ constraints ] ; from mdp
10506 10507     1   0.1111   0.1111
[ constraints ] ; from mdp
10506 10508     1   0.1111   0.1111
[ bonds ]
10506 10509     1    0.153   186188    0.153   186188
[ constraints ] ; from mdp
10509 10510     1   0.1111   0.1111
[ constraints ] ; from mdp
10509 10511     1   0.1111   0.1111
[ bonds ]
10509 10512     1    0.153   186188    0.153   186188
[ constraints ] ; from mdp
10512 10513     1   0.1111   0.1111
[ constraints ] ; from mdp
10512 10514     1   0.1111   0.1111
[ bonds ]
10512 10515     1    0.153   186188    0.153   186188
[ constraints ] ; from mdp
10515 10516     1   0.1111   0.1111
[ constraints ] ; from mdp
10515 10517     1   0.1111   0.1111
[ bonds ]
10515 10518     1    0.153   186188    0.153   186188
[ constraints ] ; from mdp
10518 10519     1   0.1111   0.1111
[ constraints ] ; from mdp
10518 10520     1   0.1111   0.1111
[ bonds ]
10518 10521     1    0.153   186188    0.153   186188
[ constraints ] ; from mdp
10521 10522     1   0.1111   0.1111
[ constraints ] ; from mdp
10521 10523     1   0.1111   0.1111
[ bonds ]
10521 10524     1    0.153   186188    0.153   186188
[ constraints ] ; from mdp
10524 10525     1   0.1111   0.1111
[ constraints ] ; from mdp
10524 10526     1   0.1111   0.1111
[ bonds ]
10524 10527     1   0.1528   186188   0.1528   186188
[ constraints ] ; from mdp
10527 10528     1   0.1111   0.1111
[ constraints ] ; from mdp
10527 10529     1   0.1111   0.1111
[ constraints ] ; from mdp
10527 10530     1   0.1111   0.1111
[ bonds ]
10531 10532     1    0.151   179912    0.151   179912
[ bonds ]
10531 10536     1    0.151   179912    0.151   179912
[ bonds ]
10531 10540     1    0.151   179912    0.151   179912
[ bonds ]
10531 10544     1    0.151   179912    0.151   179912
[ constraints ] ; from mdp
10532 10533     1    0.108    0.108
[ constraints ] ; from mdp
10532 10534     1    0.108    0.108
[ constraints ] ; from mdp
10532 10535     1    0.108    0.108
[ constraints ] ; from mdp
10536 10537     1    0.108    0.108
[ constraints ] ; from mdp
10536 10538     1    0.108    0.108
[ constraints ] ; from mdp
10536 10539     1    0.108    0.108
[ constraints ] ; from mdp
10540 10541     1    0.108    0.108
[ constraints ] ; from mdp
10540 10542     1    0.108    0.108
[ constraints ] ; from mdp
10540 10543     1    0.108    0.108
[ constraints ] ; from mdp
10544 10545     1    0.108    0.108
[ constraints ] ; from mdp
10544 10546     1    0.108    0.108
[ bonds ]
10544 10547     1    0.153   186188    0.153   186188
[ constraints ] ; from mdp
10547 10548     1   0.1111   0.1111
[ constraints ] ; from mdp
10547 10549     1   0.1111   0.1111
[ bonds ]
10547 10554     1    0.143   284512    0.143   284512
[ bonds ]
10550 10551     1    0.148   485344    0.148   485344
[ bonds ]
10550 10552     1    0.148   485344    0.148   485344
[ bonds ]
10550 10553     1     0.16   225936     0.16   225936
[ bonds ]
10550 10554     1     0.16   225936     0.16   225936
[ bonds ]
10553 10555     1    0.143   284512    0.143   284512
[ constraints ] ; from mdp
10555 10556     1   0.1111   0.1111
[ constraints ] ; from mdp
10555 10557     1   0.1111   0.1111
[ bonds ]
10555 10558     1   0.1538   186188   0.1538   186188
[ constraints ] ; from mdp
10558 10559     1   0.1111   0.1111
[ bonds ]
10558 10560     1    0.143   284512    0.143   284512
[ bonds ]
10558 10566     1   0.1538   186188   0.1538   186188
[ bonds ]
10560 10561     1   0.1334   125520   0.1334   125520
[ bonds ]
10561 10562     1    0.122   627600    0.122   627600
[ bonds ]
10561 10563     1   0.1522   167360   0.1522   167360
[ constraints ] ; from mdp
10563 10564     1   0.1111   0.1111
[ constraints ] ; from mdp
10563 10565     1   0.1111   0.1111
[ bonds ]
10563 10575     1    0.153   186188    0.153   186188
[ constraints ] ; from mdp
10566 10567     1   0.1111   0.1111
[ constraints ] ; from mdp
10566 10568     1   0.1111   0.1111
[ bonds ]
10566 10569     1    0.143   284512    0.143   284512
[ bonds ]
10569 10570     1   0.1334   125520   0.1334   125520
[ bonds ]
10570 10571     1    0.122   627600    0.122   627600
[ bonds ]
10570 10572     1   0.1522   167360   0.1522   167360
[ constraints ] ; from mdp
10572 10573     1   0.1111   0.1111
[ constraints ] ; from mdp
10572 10574     1   0.1111   0.1111
[ bonds ]
10572 10618     1    0.153   186188    0.153   186188
[ constraints ] ; from mdp
10575 10576     1   0.1111   0.1111
[ constraints ] ; from mdp
10575 10577     1   0.1111   0.1111
[ bonds ]
10575 10578     1    0.153   186188    0.153   186188
[ constraints ] ; from mdp
10578 10579     1   0.1111   0.1111
[ constraints ] ; from mdp
10578 10580     1   0.1111   0.1111
[ bonds ]
10578 10581     1    0.153   186188    0.153   186188
[ constraints ] ; from mdp
10581 10582     1   0.1111   0.1111
[ constraints ] ; from mdp
10581 10583     1   0.1111   0.1111
[ bonds ]
10581 10584     1    0.153   186188    0.153   186188
[ constraints ] ; from mdp
10584 10585     1   0.1111   0.1111
[ constraints ] ; from mdp
10584 10586     1   0.1111   0.1111
[ bonds ]
10584 10587     1    0.153   186188    0.153   186188
[ constraints ] ; from mdp
10587 10588     1   0.1111   0.1111
[ constraints ] ; from mdp
10587 10589     1   0.1111   0.1111
[ bonds ]
10587 10590     1    0.153   186188    0.153   186188
[ constraints ] ; from mdp
10590 10591     1   0.1111   0.1111
[ constraints ] ; from mdp
10590 10592     1   0.1111   0.1111
[ bonds ]
10590 10593     1    0.153   186188    0.153   186188
[ constraints ] ; from mdp
10593 10594     1   0.1111   0.1111
[ constraints ] ; from mdp
10593 10595     1   0.1111   0.1111
[ bonds ]
10593 10596     1    0.153   186188    0.153   186188
[ constraints ] ; from mdp
10596 10597     1   0.1111   0.1111
[ constraints ] ; from mdp
10596 10598     1   0.1111   0.1111
[ bonds ]
10596 10599     1    0.153   186188    0.153   186188
[ constraints ] ; from mdp
10599 10600     1   0.1111   0.1111
[ constraints ] ; from mdp
10599 10601     1   0.1111   0.1111
[ bonds ]
10599 10602     1    0.153   186188    0.153   186188
[ constraints ] ; from mdp
10602 10603     1   0.1111   0.1111
[ constraints ] ; from mdp
10602 10604     1   0.1111   0.1111
[ bonds ]
10602 10605     1    0.153   186188    0.153   186188
[ constraints ] ; from mdp
10605 10606     1   0.1111   0.1111
[ constraints ] ; from mdp
10605 10607     1   0.1111   0.1111
[ bonds ]
10605 10608     1    0.153   186188    0.153   186188
[ constraints ] ; from mdp
10608 10609     1   0.1111   0.1111
[ constraints ] ; from mdp
10608 10610     1   0.1111   0.1111
[ bonds ]
10608 10611     1    0.153   186188    0.153   186188
[ constraints ] ; from mdp
10611 10612     1   0.1111   0.1111
[ constraints ] ; from mdp
10611 10613     1   0.1111   0.1111
[ bonds ]
10611 10614     1   0.1528   186188   0.1528   186188
[ constraints ] ; from mdp
10614 10615     1   0.1111   0.1111
[ constraints ] ; from mdp
10614 10616     1   0.1111   0.1111
[ constraints ] ; from mdp
10614 10617     1   0.1111   0.1111
[ constraints ] ; from mdp
10618 10619     1   0.1111   0.1111
[ constraints ] ; from mdp
10618 10620     1   0.1111   0.1111
[ bonds ]
10618 10621     1    0.153   186188    0.153   186188
[ constraints ] ; from mdp
10621 10622     1   0.1111   0.1111
[ constraints ] ; from mdp
10621 10623     1   0.1111   0.1111
[ bonds ]
10621 10624     1    0.153   186188    0.153   186188
[ constraints ] ; from mdp
10624 10625     1   0.1111   0.1111
[ constraints ] ; from mdp
10624 10626     1   0.1111   0.1111
[ bonds ]
10624 10627     1    0.153   186188    0.153   186188
[ constraints ] ; from mdp
10627 10628     1   0.1111   0.1111
[ constraints ] ; from mdp
10627 10629     1   0.1111   0.1111
[ bonds ]
10627 10630     1    0.153   186188    0.153   186188
[ constraints ] ; from mdp
10630 10631     1   0.1111   0.1111
[ constraints ] ; from mdp
10630 10632     1   0.1111   0.1111
[ bonds ]
10630 10633     1    0.153   186188    0.153   186188
[ constraints ] ; from mdp
10633 10634     1   0.1111   0.1111
[ constraints ] ; from mdp
10633 10635     1   0.1111   0.1111
[ bonds ]
10633 10636     1    0.153   186188    0.153   186188
[ constraints ] ; from mdp
10636 10637     1   0.1111   0.1111
[ constraints ] ; from mdp
10636 10638     1   0.1111   0.1111
[ bonds ]
10636 10639     1    0.153   186188    0.153   186188
[ constraints ] ; from mdp
10639 10640     1   0.1111   0.1111
[ constraints ] ; from mdp
10639 10641     1   0.1111   0.1111
[ bonds ]
10639 10642     1    0.153   186188    0.153   186188
[ constraints ] ; from mdp
10642 10643     1   0.1111   0.1111
[ constraints ] ; from mdp
10642 10644     1   0.1111   0.1111
[ bonds ]
10642 10645     1    0.153   186188    0.153   186188
[ constraints ] ; from mdp
10645 10646     1   0.1111   0.1111
[ constraints ] ; from mdp
10645 10647     1   0.1111   0.1111
[ bonds ]
10645 10648     1    0.153   186188    0.153   186188
[ constraints ] ; from mdp
10648 10649     1   0.1111   0.1111
[ constraints ] ; from mdp
10648 10650     1   0.1111   0.1111
[ bonds ]
10648 10651     1    0.153   186188    0.153   186188
[ constraints ] ; from mdp
10651 10652     1   0.1111   0.1111
[ constraints ] ; from mdp
10651 10653     1   0.1111   0.1111
[ bonds ]
10651 10654     1    0.153   186188    0.153   186188
[ constraints ] ; from mdp
10654 10655     1   0.1111   0.1111
[ constraints ] ; from mdp
10654 10656     1   0.1111   0.1111
[ bonds ]
10654 10657     1   0.1528   186188   0.1528   186188
[ constraints ] ; from mdp
10657 10658     1   0.1111   0.1111
[ constraints ] ; from mdp
10657 10659     1   0.1111   0.1111
[ constraints ] ; from mdp
10657 10660     1   0.1111   0.1111
[ bonds ]
10661 10662     1    0.151   179912    0.151   179912
[ bonds ]
10661 10666     1    0.151   179912    0.151   179912
[ bonds ]
10661 10670     1    0.151   179912    0.151   179912
[ bonds ]
10661 10674     1    0.151   179912    0.151   179912
[ constraints ] ; from mdp
10662 10663     1    0.108    0.108
[ constraints ] ; from mdp
10662 10664     1    0.108    0.108
[ constraints ] ; from mdp
10662 10665     1    0.108    0.108
[ constraints ] ; from mdp
10666 10667     1    0.108    0.108
[ constraints ] ; from mdp
10666 10668     1    0.108    0.108
[ constraints ] ; from mdp
10666 10669     1    0.108    0.108
[ constraints ] ; from mdp
10670 10671     1    0.108    0.108
[ constraints ] ; from mdp
10670 10672     1    0.108    0.108
[ constraints ] ; from mdp
10670 10673     1    0.108    0.108
[ constraints ] ; from mdp
10674 10675     1    0.108    0.108
[ constraints ] ; from mdp
10674 10676     1    0.108    0.108
[ bonds ]
10674 10677     1    0.153   186188    0.153   186188
[ constraints ] ; from mdp
10677 10678     1   0.1111   0.1111
[ constraints ] ; from mdp
10677 10679     1   0.1111   0.1111
[ bonds ]
10677 10684     1    0.143   284512    0.143   284512
[ bonds ]
10680 10681     1    0.148   485344    0.148   485344
[ bonds ]
10680 10682     1    0.148   485344    0.148   485344
[ bonds ]
10680 10683     1     0.16   225936     0.16   225936
[ bonds ]
10680 10684     1     0.16   225936     0.16   225936
[ bonds ]
10683 10685     1    0.143   284512    0.143   284512
[ constraints ] ; from mdp
10685 10686     1   0.1111   0.1111
[ constraints ] ; from mdp
10685 10687     1   0.1111   0.1111
[ bonds ]
10685 10688     1   0.1538   186188   0.1538   186188
[ constraints ] ; from mdp
10688 10689     1   0.1111   0.1111
[ bonds ]
10688 10690     1    0.143   284512    0.143   284512
[ bonds ]
10688 10696     1   0.1538   186188   0.1538   186188
[ bonds ]
10690 10691     1   0.1334   125520   0.1334   125520
[ bonds ]
10691 10692     1    0.122   627600    0.122   627600
[ bonds ]
10691 10693     1   0.1522   167360   0.1522   167360
[ constraints ] ; from mdp
10693 10694     1   0.1111   0.1111
[ constraints ] ; from mdp
10693 10695     1   0.1111   0.1111
[ bonds ]
10693 10705     1    0.153   186188    0.153   186188
[ constraints ] ; from mdp
10696 10697     1   0.1111   0.1111
[ constraints ] ; from mdp
10696 10698     1   0.1111   0.1111
[ bonds ]
10696 10699     1    0.143   284512    0.143   284512
[ bonds ]
10699 10700     1   0.1334   125520   0.1334   125520
[ bonds ]
10700 10701     1    0.122   627600    0.122   627600
[ bonds ]
10700 10702     1   0.1522   167360   0.1522   167360
[ constraints ] ; from mdp
10702 10703     1   0.1111   0.1111
[ constraints ] ; from mdp
10702 10704     1   0.1111   0.1111
[ bonds ]
10702 10748     1    0.153   186188    0.153   186188
[ constraints ] ; from mdp
10705 10706     1   0.1111   0.1111
[ constraints ] ; from mdp
10705 10707     1   0.1111   0.1111
[ bonds ]
10705 10708     1    0.153   186188    0.153   186188
[ constraints ] ; from mdp
10708 10709     1   0.1111   0.1111
[ constraints ] ; from mdp
10708 10710     1   0.1111   0.1111
[ bonds ]
10708 10711     1    0.153   186188    0.153   186188
[ constraints ] ; from mdp
10711 10712     1   0.1111   0.1111
[ constraints ] ; from mdp
10711 10713     1   0.1111   0.1111
[ bonds ]
10711 10714     1    0.153   186188    0.153   186188
[ constraints ] ; from mdp
10714 10715     1   0.1111   0.1111
[ constraints ] ; from mdp
10714 10716     1   0.1111   0.1111
[ bonds ]
10714 10717     1    0.153   186188    0.153   186188
[ constraints ] ; from mdp
10717 10718     1   0.1111   0.1111
[ constraints ] ; from mdp
10717 10719     1   0.1111   0.1111
[ bonds ]
10717 10720     1    0.153   186188    0.153   186188
[ constraints ] ; from mdp
10720 10721     1   0.1111   0.1111
[ constraints ] ; from mdp
10720 10722     1   0.1111   0.1111
[ bonds ]
10720 10723     1    0.153   186188    0.153   186188
[ constraints ] ; from mdp
10723 10724     1   0.1111   0.1111
[ constraints ] ; from mdp
10723 10725     1   0.1111   0.1111
[ bonds ]
10723 10726     1    0.153   186188    0.153   186188
[ constraints ] ; from mdp
10726 10727     1   0.1111   0.1111
[ constraints ] ; from mdp
10726 10728     1   0.1111   0.1111
[ bonds ]
10726 10729     1    0.153   186188    0.153   186188
[ constraints ] ; from mdp
10729 10730     1   0.1111   0.1111
[ constraints ] ; from mdp
10729 10731     1   0.1111   0.1111
[ bonds ]
10729 10732     1    0.153   186188    0.153   186188
[ constraints ] ; from mdp
10732 10733     1   0.1111   0.1111
[ constraints ] ; from mdp
10732 10734     1   0.1111   0.1111
[ bonds ]
10732 10735     1    0.153   186188    0.153   186188
[ constraints ] ; from mdp
10735 10736     1   0.1111   0.1111
[ constraints ] ; from mdp
10735 10737     1   0.1111   0.1111
[ bonds ]
10735 10738     1    0.153   186188    0.153   186188
[ constraints ] ; from mdp
10738 10739     1   0.1111   0.1111
[ constraints ] ; from mdp
10738 10740     1   0.1111   0.1111
[ bonds ]
10738 10741     1    0.153   186188    0.153   186188
[ constraints ] ; from mdp
10741 10742     1   0.1111   0.1111
[ constraints ] ; from mdp
10741 10743     1   0.1111   0.1111
[ bonds ]
10741 10744     1   0.1528   186188   0.1528   186188
[ constraints ] ; from mdp
10744 10745     1   0.1111   0.1111
[ constraints ] ; from mdp
10744 10746     1   0.1111   0.1111
[ constraints ] ; from mdp
10744 10747     1   0.1111   0.1111
[ constraints ] ; from mdp
10748 10749     1   0.1111   0.1111
[ constraints ] ; from mdp
10748 10750     1   0.1111   0.1111
[ bonds ]
10748 10751     1    0.153   186188    0.153   186188
[ constraints ] ; from mdp
10751 10752     1   0.1111   0.1111
[ constraints ] ; from mdp
10751 10753     1   0.1111   0.1111
[ bonds ]
10751 10754     1    0.153   186188    0.153   186188
[ constraints ] ; from mdp
10754 10755     1   0.1111   0.1111
[ constraints ] ; from mdp
10754 10756     1   0.1111   0.1111
[ bonds ]
10754 10757     1    0.153   186188    0.153   186188
[ constraints ] ; from mdp
10757 10758     1   0.1111   0.1111
[ constraints ] ; from mdp
10757 10759     1   0.1111   0.1111
[ bonds ]
10757 10760     1    0.153   186188    0.153   186188
[ constraints ] ; from mdp
10760 10761     1   0.1111   0.1111
[ constraints ] ; from mdp
10760 10762     1   0.1111   0.1111
[ bonds ]
10760 10763     1    0.153   186188    0.153   186188
[ constraints ] ; from mdp
10763 10764     1   0.1111   0.1111
[ constraints ] ; from mdp
10763 10765     1   0.1111   0.1111
[ bonds ]
10763 10766     1    0.153   186188    0.153   186188
[ constraints ] ; from mdp
10766 10767     1   0.1111   0.1111
[ constraints ] ; from mdp
10766 10768     1   0.1111   0.1111
[ bonds ]
10766 10769     1    0.153   186188    0.153   186188
[ constraints ] ; from mdp
10769 10770     1   0.1111   0.1111
[ constraints ] ; from mdp
10769 10771     1   0.1111   0.1111
[ bonds ]
10769 10772     1    0.153   186188    0.153   186188
[ constraints ] ; from mdp
10772 10773     1   0.1111   0.1111
[ constraints ] ; from mdp
10772 10774     1   0.1111   0.1111
[ bonds ]
10772 10775     1    0.153   186188    0.153   186188
[ constraints ] ; from mdp
10775 10776     1   0.1111   0.1111
[ constraints ] ; from mdp
10775 10777     1   0.1111   0.1111
[ bonds ]
10775 10778     1    0.153   186188    0.153   186188
[ constraints ] ; from mdp
10778 10779     1   0.1111   0.1111
[ constraints ] ; from mdp
10778 10780     1   0.1111   0.1111
[ bonds ]
10778 10781     1    0.153   186188    0.153   186188
[ constraints ] ; from mdp
10781 10782     1   0.1111   0.1111
[ constraints ] ; from mdp
10781 10783     1   0.1111   0.1111
[ bonds ]
10781 10784     1    0.153   186188    0.153   186188
[ constraints ] ; from mdp
10784 10785     1   0.1111   0.1111
[ constraints ] ; from mdp
10784 10786     1   0.1111   0.1111
[ bonds ]
10784 10787     1   0.1528   186188   0.1528   186188
[ constraints ] ; from mdp
10787 10788     1   0.1111   0.1111
[ constraints ] ; from mdp
10787 10789     1   0.1111   0.1111
[ constraints ] ; from mdp
10787 10790     1   0.1111   0.1111
[ bonds ]
10791 10792     1    0.151   179912    0.151   179912
[ bonds ]
10791 10796     1    0.151   179912    0.151   179912
[ bonds ]
10791 10800     1    0.151   179912    0.151   179912
[ bonds ]
10791 10804     1    0.151   179912    0.151   179912
[ constraints ] ; from mdp
10792 10793     1    0.108    0.108
[ constraints ] ; from mdp
10792 10794     1    0.108    0.108
[ constraints ] ; from mdp
10792 10795     1    0.108    0.108
[ constraints ] ; from mdp
10796 10797     1    0.108    0.108
[ constraints ] ; from mdp
10796 10798     1    0.108    0.108
[ constraints ] ; from mdp
10796 10799     1    0.108    0.108
[ constraints ] ; from mdp
10800 10801     1    0.108    0.108
[ constraints ] ; from mdp
10800 10802     1    0.108    0.108
[ constraints ] ; from mdp
10800 10803     1    0.108    0.108
[ constraints ] ; from mdp
10804 10805     1    0.108    0.108
[ constraints ] ; from mdp
10804 10806     1    0.108    0.108
[ bonds ]
10804 10807     1    0.153   186188    0.153   186188
[ constraints ] ; from mdp
10807 10808     1   0.1111   0.1111
[ constraints ] ; from mdp
10807 10809     1   0.1111   0.1111
[ bonds ]
10807 10814     1    0.143   284512    0.143   284512
[ bonds ]
10810 10811     1    0.148   485344    0.148   485344
[ bonds ]
10810 10812     1    0.148   485344    0.148   485344
[ bonds ]
10810 10813     1     0.16   225936     0.16   225936
[ bonds ]
10810 10814     1     0.16   225936     0.16   225936
[ bonds ]
10813 10815     1    0.143   284512    0.143   284512
[ constraints ] ; from mdp
10815 10816     1   0.1111   0.1111
[ constraints ] ; from mdp
10815 10817     1   0.1111   0.1111
[ bonds ]
10815 10818     1   0.1538   186188   0.1538   186188
[ constraints ] ; from mdp
10818 10819     1   0.1111   0.1111
[ bonds ]
10818 10820     1    0.143   284512    0.143   284512
[ bonds ]
10818 10826     1   0.1538   186188   0.1538   186188
[ bonds ]
10820 10821     1   0.1334   125520   0.1334   125520
[ bonds ]
10821 10822     1    0.122   627600    0.122   627600
[ bonds ]
10821 10823     1   0.1522   167360   0.1522   167360
[ constraints ] ; from mdp
10823 10824     1   0.1111   0.1111
[ constraints ] ; from mdp
10823 10825     1   0.1111   0.1111
[ bonds ]
10823 10835     1    0.153   186188    0.153   186188
[ constraints ] ; from mdp
10826 10827     1   0.1111   0.1111
[ constraints ] ; from mdp
10826 10828     1   0.1111   0.1111
[ bonds ]
10826 10829     1    0.143   284512    0.143   284512
[ bonds ]
10829 10830     1   0.1334   125520   0.1334   125520
[ bonds ]
10830 10831     1    0.122   627600    0.122   627600
[ bonds ]
10830 10832     1   0.1522   167360   0.1522   167360
[ constraints ] ; from mdp
10832 10833     1   0.1111   0.1111
[ constraints ] ; from mdp
10832 10834     1   0.1111   0.1111
[ bonds ]
10832 10878     1    0.153   186188    0.153   186188
[ constraints ] ; from mdp
10835 10836     1   0.1111   0.1111
[ constraints ] ; from mdp
10835 10837     1   0.1111   0.1111
[ bonds ]
10835 10838     1    0.153   186188    0.153   186188
[ constraints ] ; from mdp
10838 10839     1   0.1111   0.1111
[ constraints ] ; from mdp
10838 10840     1   0.1111   0.1111
[ bonds ]
10838 10841     1    0.153   186188    0.153   186188
[ constraints ] ; from mdp
10841 10842     1   0.1111   0.1111
[ constraints ] ; from mdp
10841 10843     1   0.1111   0.1111
[ bonds ]
10841 10844     1    0.153   186188    0.153   186188
[ constraints ] ; from mdp
10844 10845     1   0.1111   0.1111
[ constraints ] ; from mdp
10844 10846     1   0.1111   0.1111
[ bonds ]
10844 10847     1    0.153   186188    0.153   186188
[ constraints ] ; from mdp
10847 10848     1   0.1111   0.1111
[ constraints ] ; from mdp
10847 10849     1   0.1111   0.1111
[ bonds ]
10847 10850     1    0.153   186188    0.153   186188
[ constraints ] ; from mdp
10850 10851     1   0.1111   0.1111
[ constraints ] ; from mdp
10850 10852     1   0.1111   0.1111
[ bonds ]
10850 10853     1    0.153   186188    0.153   186188
[ constraints ] ; from mdp
10853 10854     1   0.1111   0.1111
[ constraints ] ; from mdp
10853 10855     1   0.1111   0.1111
[ bonds ]
10853 10856     1    0.153   186188    0.153   186188
[ constraints ] ; from mdp
10856 10857     1   0.1111   0.1111
[ constraints ] ; from mdp
10856 10858     1   0.1111   0.1111
[ bonds ]
10856 10859     1    0.153   186188    0.153   186188
[ constraints ] ; from mdp
10859 10860     1   0.1111   0.1111
[ constraints ] ; from mdp
10859 10861     1   0.1111   0.1111
[ bonds ]
10859 10862     1    0.153   186188    0.153   186188
[ constraints ] ; from mdp
10862 10863     1   0.1111   0.1111
[ constraints ] ; from mdp
10862 10864     1   0.1111   0.1111
[ bonds ]
10862 10865     1    0.153   186188    0.153   186188
[ constraints ] ; from mdp
10865 10866     1   0.1111   0.1111
[ constraints ] ; from mdp
10865 10867     1   0.1111   0.1111
[ bonds ]
10865 10868     1    0.153   186188    0.153   186188
[ constraints ] ; from mdp
10868 10869     1   0.1111   0.1111
[ constraints ] ; from mdp
10868 10870     1   0.1111   0.1111
[ bonds ]
10868 10871     1    0.153   186188    0.153   186188
[ constraints ] ; from mdp
10871 10872     1   0.1111   0.1111
[ constraints ] ; from mdp
10871 10873     1   0.1111   0.1111
[ bonds ]
10871 10874     1   0.1528   186188   0.1528   186188
[ constraints ] ; from mdp
10874 10875     1   0.1111   0.1111
[ constraints ] ; from mdp
10874 10876     1   0.1111   0.1111
[ constraints ] ; from mdp
10874 10877     1   0.1111   0.1111
[ constraints ] ; from mdp
10878 10879     1   0.1111   0.1111
[ constraints ] ; from mdp
10878 10880     1   0.1111   0.1111
[ bonds ]
10878 10881     1    0.153   186188    0.153   186188
[ constraints ] ; from mdp
10881 10882     1   0.1111   0.1111
[ constraints ] ; from mdp
10881 10883     1   0.1111   0.1111
[ bonds ]
10881 10884     1    0.153   186188    0.153   186188
[ constraints ] ; from mdp
10884 10885     1   0.1111   0.1111
[ constraints ] ; from mdp
10884 10886     1   0.1111   0.1111
[ bonds ]
10884 10887     1    0.153   186188    0.153   186188
[ constraints ] ; from mdp
10887 10888     1   0.1111   0.1111
[ constraints ] ; from mdp
10887 10889     1   0.1111   0.1111
[ bonds ]
10887 10890     1    0.153   186188    0.153   186188
[ constraints ] ; from mdp
10890 10891     1   0.1111   0.1111
[ constraints ] ; from mdp
10890 10892     1   0.1111   0.1111
[ bonds ]
10890 10893     1    0.153   186188    0.153   186188
[ constraints ] ; from mdp
10893 10894     1   0.1111   0.1111
[ constraints ] ; from mdp
10893 10895     1   0.1111   0.1111
[ bonds ]
10893 10896     1    0.153   186188    0.153   186188
[ constraints ] ; from mdp
10896 10897     1   0.1111   0.1111
[ constraints ] ; from mdp
10896 10898     1   0.1111   0.1111
[ bonds ]
10896 10899     1    0.153   186188    0.153   186188
[ constraints ] ; from mdp
10899 10900     1   0.1111   0.1111
[ constraints ] ; from mdp
10899 10901     1   0.1111   0.1111
[ bonds ]
10899 10902     1    0.153   186188    0.153   186188
[ constraints ] ; from mdp
10902 10903     1   0.1111   0.1111
[ constraints ] ; from mdp
10902 10904     1   0.1111   0.1111
[ bonds ]
10902 10905     1    0.153   186188    0.153   186188
[ constraints ] ; from mdp
10905 10906     1   0.1111   0.1111
[ constraints ] ; from mdp
10905 10907     1   0.1111   0.1111
[ bonds ]
10905 10908     1    0.153   186188    0.153   186188
[ constraints ] ; from mdp
10908 10909     1   0.1111   0.1111
[ constraints ] ; from mdp
10908 10910     1   0.1111   0.1111
[ bonds ]
10908 10911     1    0.153   186188    0.153   186188
[ constraints ] ; from mdp
10911 10912     1   0.1111   0.1111
[ constraints ] ; from mdp
10911 10913     1   0.1111   0.1111
[ bonds ]
10911 10914     1    0.153   186188    0.153   186188
[ constraints ] ; from mdp
10914 10915     1   0.1111   0.1111
[ constraints ] ; from mdp
10914 10916     1   0.1111   0.1111
[ bonds ]
10914 10917     1   0.1528   186188   0.1528   186188
[ constraints ] ; from mdp
10917 10918     1   0.1111   0.1111
[ constraints ] ; from mdp
10917 10919     1   0.1111   0.1111
[ constraints ] ; from mdp
10917 10920     1   0.1111   0.1111
[ bonds ]
10921 10922     1    0.151   179912    0.151   179912
[ bonds ]
10921 10926     1    0.151   179912    0.151   179912
[ bonds ]
10921 10930     1    0.151   179912    0.151   179912
[ bonds ]
10921 10934     1    0.151   179912    0.151   179912
[ constraints ] ; from mdp
10922 10923     1    0.108    0.108
[ constraints ] ; from mdp
10922 10924     1    0.108    0.108
[ constraints ] ; from mdp
10922 10925     1    0.108    0.108
[ constraints ] ; from mdp
10926 10927     1    0.108    0.108
[ constraints ] ; from mdp
10926 10928     1    0.108    0.108
[ constraints ] ; from mdp
10926 10929     1    0.108    0.108
[ constraints ] ; from mdp
10930 10931     1    0.108    0.108
[ constraints ] ; from mdp
10930 10932     1    0.108    0.108
[ constraints ] ; from mdp
10930 10933     1    0.108    0.108
[ constraints ] ; from mdp
10934 10935     1    0.108    0.108
[ constraints ] ; from mdp
10934 10936     1    0.108    0.108
[ bonds ]
10934 10937     1    0.153   186188    0.153   186188
[ constraints ] ; from mdp
10937 10938     1   0.1111   0.1111
[ constraints ] ; from mdp
10937 10939     1   0.1111   0.1111
[ bonds ]
10937 10944     1    0.143   284512    0.143   284512
[ bonds ]
10940 10941     1    0.148   485344    0.148   485344
[ bonds ]
10940 10942     1    0.148   485344    0.148   485344
[ bonds ]
10940 10943     1     0.16   225936     0.16   225936
[ bonds ]
10940 10944     1     0.16   225936     0.16   225936
[ bonds ]
10943 10945     1    0.143   284512    0.143   284512
[ constraints ] ; from mdp
10945 10946     1   0.1111   0.1111
[ constraints ] ; from mdp
10945 10947     1   0.1111   0.1111
[ bonds ]
10945 10948     1   0.1538   186188   0.1538   186188
[ constraints ] ; from mdp
10948 10949     1   0.1111   0.1111
[ bonds ]
10948 10950     1    0.143   284512    0.143   284512
[ bonds ]
10948 10956     1   0.1538   186188   0.1538   186188
[ bonds ]
10950 10951     1   0.1334   125520   0.1334   125520
[ bonds ]
10951 10952     1    0.122   627600    0.122   627600
[ bonds ]
10951 10953     1   0.1522   167360   0.1522   167360
[ constraints ] ; from mdp
10953 10954     1   0.1111   0.1111
[ constraints ] ; from mdp
10953 10955     1   0.1111   0.1111
[ bonds ]
10953 10965     1    0.153   186188    0.153   186188
[ constraints ] ; from mdp
10956 10957     1   0.1111   0.1111
[ constraints ] ; from mdp
10956 10958     1   0.1111   0.1111
[ bonds ]
10956 10959     1    0.143   284512    0.143   284512
[ bonds ]
10959 10960     1   0.1334   125520   0.1334   125520
[ bonds ]
10960 10961     1    0.122   627600    0.122   627600
[ bonds ]
10960 10962     1   0.1522   167360   0.1522   167360
[ constraints ] ; from mdp
10962 10963     1   0.1111   0.1111
[ constraints ] ; from mdp
10962 10964     1   0.1111   0.1111
[ bonds ]
10962 11008     1    0.153   186188    0.153   186188
[ constraints ] ; from mdp
10965 10966     1   0.1111   0.1111
[ constraints ] ; from mdp
10965 10967     1   0.1111   0.1111
[ bonds ]
10965 10968     1    0.153   186188    0.153   186188
[ constraints ] ; from mdp
10968 10969     1   0.1111   0.1111
[ constraints ] ; from mdp
10968 10970     1   0.1111   0.1111
[ bonds ]
10968 10971     1    0.153   186188    0.153   186188
[ constraints ] ; from mdp
10971 10972     1   0.1111   0.1111
[ constraints ] ; from mdp
10971 10973     1   0.1111   0.1111
[ bonds ]
10971 10974     1    0.153   186188    0.153   186188
[ constraints ] ; from mdp
10974 10975     1   0.1111   0.1111
[ constraints ] ; from mdp
10974 10976     1   0.1111   0.1111
[ bonds ]
10974 10977     1    0.153   186188    0.153   186188
[ constraints ] ; from mdp
10977 10978     1   0.1111   0.1111
[ constraints ] ; from mdp
10977 10979     1   0.1111   0.1111
[ bonds ]
10977 10980     1    0.153   186188    0.153   186188
[ constraints ] ; from mdp
10980 10981     1   0.1111   0.1111
[ constraints ] ; from mdp
10980 10982     1   0.1111   0.1111
[ bonds ]
10980 10983     1    0.153   186188    0.153   186188
[ constraints ] ; from mdp
10983 10984     1   0.1111   0.1111
[ constraints ] ; from mdp
10983 10985     1   0.1111   0.1111
[ bonds ]
10983 10986     1    0.153   186188    0.153   186188
[ constraints ] ; from mdp
10986 10987     1   0.1111   0.1111
[ constraints ] ; from mdp
10986 10988     1   0.1111   0.1111
[ bonds ]
10986 10989     1    0.153   186188    0.153   186188
[ constraints ] ; from mdp
10989 10990     1   0.1111   0.1111
[ constraints ] ; from mdp
10989 10991     1   0.1111   0.1111
[ bonds ]
10989 10992     1    0.153   186188    0.153   186188
[ constraints ] ; from mdp
10992 10993     1   0.1111   0.1111
[ constraints ] ; from mdp
10992 10994     1   0.1111   0.1111
[ bonds ]
10992 10995     1    0.153   186188    0.153   186188
[ constraints ] ; from mdp
10995 10996     1   0.1111   0.1111
[ constraints ] ; from mdp
10995 10997     1   0.1111   0.1111
[ bonds ]
10995 10998     1    0.153   186188    0.153   186188
[ constraints ] ; from mdp
10998 10999     1   0.1111   0.1111
[ constraints ] ; from mdp
10998 11000     1   0.1111   0.1111
[ bonds ]
10998 11001     1    0.153   186188    0.153   186188
[ constraints ] ; from mdp
11001 11002     1   0.1111   0.1111
[ constraints ] ; from mdp
11001 11003     1   0.1111   0.1111
[ bonds ]
11001 11004     1   0.1528   186188   0.1528   186188
[ constraints ] ; from mdp
11004 11005     1   0.1111   0.1111
[ constraints ] ; from mdp
11004 11006     1   0.1111   0.1111
[ constraints ] ; from mdp
11004 11007     1   0.1111   0.1111
[ constraints ] ; from mdp
11008 11009     1   0.1111   0.1111
[ constraints ] ; from mdp
11008 11010     1   0.1111   0.1111
[ bonds ]
11008 11011     1    0.153   186188    0.153   186188
[ constraints ] ; from mdp
11011 11012     1   0.1111   0.1111
[ constraints ] ; from mdp
11011 11013     1   0.1111   0.1111
[ bonds ]
11011 11014     1    0.153   186188    0.153   186188
[ constraints ] ; from mdp
11014 11015     1   0.1111   0.1111
[ constraints ] ; from mdp
11014 11016     1   0.1111   0.1111
[ bonds ]
11014 11017     1    0.153   186188    0.153   186188
[ constraints ] ; from mdp
11017 11018     1   0.1111   0.1111
[ constraints ] ; from mdp
11017 11019     1   0.1111   0.1111
[ bonds ]
11017 11020     1    0.153   186188    0.153   186188
[ constraints ] ; from mdp
11020 11021     1   0.1111   0.1111
[ constraints ] ; from mdp
11020 11022     1   0.1111   0.1111
[ bonds ]
11020 11023     1    0.153   186188    0.153   186188
[ constraints ] ; from mdp
11023 11024     1   0.1111   0.1111
[ constraints ] ; from mdp
11023 11025     1   0.1111   0.1111
[ bonds ]
11023 11026     1    0.153   186188    0.153   186188
[ constraints ] ; from mdp
11026 11027     1   0.1111   0.1111
[ constraints ] ; from mdp
11026 11028     1   0.1111   0.1111
[ bonds ]
11026 11029     1    0.153   186188    0.153   186188
[ constraints ] ; from mdp
11029 11030     1   0.1111   0.1111
[ constraints ] ; from mdp
11029 11031     1   0.1111   0.1111
[ bonds ]
11029 11032     1    0.153   186188    0.153   186188
[ constraints ] ; from mdp
11032 11033     1   0.1111   0.1111
[ constraints ] ; from mdp
11032 11034     1   0.1111   0.1111
[ bonds ]
11032 11035     1    0.153   186188    0.153   186188
[ constraints ] ; from mdp
11035 11036     1   0.1111   0.1111
[ constraints ] ; from mdp
11035 11037     1   0.1111   0.1111
[ bonds ]
11035 11038     1    0.153   186188    0.153   186188
[ constraints ] ; from mdp
11038 11039     1   0.1111   0.1111
[ constraints ] ; from mdp
11038 11040     1   0.1111   0.1111
[ bonds ]
11038 11041     1    0.153   186188    0.153   186188
[ constraints ] ; from mdp
11041 11042     1   0.1111   0.1111
[ constraints ] ; from mdp
11041 11043     1   0.1111   0.1111
[ bonds ]
11041 11044     1    0.153   186188    0.153   186188
[ constraints ] ; from mdp
11044 11045     1   0.1111   0.1111
[ constraints ] ; from mdp
11044 11046     1   0.1111   0.1111
[ bonds ]
11044 11047     1   0.1528   186188   0.1528   186188
[ constraints ] ; from mdp
11047 11048     1   0.1111   0.1111
[ constraints ] ; from mdp
11047 11049     1   0.1111   0.1111
[ constraints ] ; from mdp
11047 11050     1   0.1111   0.1111
[ bonds ]
11051 11052     1    0.151   179912    0.151   179912
[ bonds ]
11051 11056     1    0.151   179912    0.151   179912
[ bonds ]
11051 11060     1    0.151   179912    0.151   179912
[ bonds ]
11051 11064     1    0.151   179912    0.151   179912
[ constraints ] ; from mdp
11052 11053     1    0.108    0.108
[ constraints ] ; from mdp
11052 11054     1    0.108    0.108
[ constraints ] ; from mdp
11052 11055     1    0.108    0.108
[ constraints ] ; from mdp
11056 11057     1    0.108    0.108
[ constraints ] ; from mdp
11056 11058     1    0.108    0.108
[ constraints ] ; from mdp
11056 11059     1    0.108    0.108
[ constraints ] ; from mdp
11060 11061     1    0.108    0.108
[ constraints ] ; from mdp
11060 11062     1    0.108    0.108
[ constraints ] ; from mdp
11060 11063     1    0.108    0.108
[ constraints ] ; from mdp
11064 11065     1    0.108    0.108
[ constraints ] ; from mdp
11064 11066     1    0.108    0.108
[ bonds ]
11064 11067     1    0.153   186188    0.153   186188
[ constraints ] ; from mdp
11067 11068     1   0.1111   0.1111
[ constraints ] ; from mdp
11067 11069     1   0.1111   0.1111
[ bonds ]
11067 11074     1    0.143   284512    0.143   284512
[ bonds ]
11070 11071     1    0.148   485344    0.148   485344
[ bonds ]
11070 11072     1    0.148   485344    0.148   485344
[ bonds ]
11070 11073     1     0.16   225936     0.16   225936
[ bonds ]
11070 11074     1     0.16   225936     0.16   225936
[ bonds ]
11073 11075     1    0.143   284512    0.143   284512
[ constraints ] ; from mdp
11075 11076     1   0.1111   0.1111
[ constraints ] ; from mdp
11075 11077     1   0.1111   0.1111
[ bonds ]
11075 11078     1   0.1538   186188   0.1538   186188
[ constraints ] ; from mdp
11078 11079     1   0.1111   0.1111
[ bonds ]
11078 11080     1    0.143   284512    0.143   284512
[ bonds ]
11078 11086     1   0.1538   186188   0.1538   186188
[ bonds ]
11080 11081     1   0.1334   125520   0.1334   125520
[ bonds ]
11081 11082     1    0.122   627600    0.122   627600
[ bonds ]
11081 11083     1   0.1522   167360   0.1522   167360
[ constraints ] ; from mdp
11083 11084     1   0.1111   0.1111
[ constraints ] ; from mdp
11083 11085     1   0.1111   0.1111
[ bonds ]
11083 11095     1    0.153   186188    0.153   186188
[ constraints ] ; from mdp
11086 11087     1   0.1111   0.1111
[ constraints ] ; from mdp
11086 11088     1   0.1111   0.1111
[ bonds ]
11086 11089     1    0.143   284512    0.143   284512
[ bonds ]
11089 11090     1   0.1334   125520   0.1334   125520
[ bonds ]
11090 11091     1    0.122   627600    0.122   627600
[ bonds ]
11090 11092     1   0.1522   167360   0.1522   167360
[ constraints ] ; from mdp
11092 11093     1   0.1111   0.1111
[ constraints ] ; from mdp
11092 11094     1   0.1111   0.1111
[ bonds ]
11092 11138     1    0.153   186188    0.153   186188
[ constraints ] ; from mdp
11095 11096     1   0.1111   0.1111
[ constraints ] ; from mdp
11095 11097     1   0.1111   0.1111
[ bonds ]
11095 11098     1    0.153   186188    0.153   186188
[ constraints ] ; from mdp
11098 11099     1   0.1111   0.1111
[ constraints ] ; from mdp
11098 11100     1   0.1111   0.1111
[ bonds ]
11098 11101     1    0.153   186188    0.153   186188
[ constraints ] ; from mdp
11101 11102     1   0.1111   0.1111
[ constraints ] ; from mdp
11101 11103     1   0.1111   0.1111
[ bonds ]
11101 11104     1    0.153   186188    0.153   186188
[ constraints ] ; from mdp
11104 11105     1   0.1111   0.1111
[ constraints ] ; from mdp
11104 11106     1   0.1111   0.1111
[ bonds ]
11104 11107     1    0.153   186188    0.153   186188
[ constraints ] ; from mdp
11107 11108     1   0.1111   0.1111
[ constraints ] ; from mdp
11107 11109     1   0.1111   0.1111
[ bonds ]
11107 11110     1    0.153   186188    0.153   186188
[ constraints ] ; from mdp
11110 11111     1   0.1111   0.1111
[ constraints ] ; from mdp
11110 11112     1   0.1111   0.1111
[ bonds ]
11110 11113     1    0.153   186188    0.153   186188
[ constraints ] ; from mdp
11113 11114     1   0.1111   0.1111
[ constraints ] ; from mdp
11113 11115     1   0.1111   0.1111
[ bonds ]
11113 11116     1    0.153   186188    0.153   186188
[ constraints ] ; from mdp
11116 11117     1   0.1111   0.1111
[ constraints ] ; from mdp
11116 11118     1   0.1111   0.1111
[ bonds ]
11116 11119     1    0.153   186188    0.153   186188
[ constraints ] ; from mdp
11119 11120     1   0.1111   0.1111
[ constraints ] ; from mdp
11119 11121     1   0.1111   0.1111
[ bonds ]
11119 11122     1    0.153   186188    0.153   186188
[ constraints ] ; from mdp
11122 11123     1   0.1111   0.1111
[ constraints ] ; from mdp
11122 11124     1   0.1111   0.1111
[ bonds ]
11122 11125     1    0.153   186188    0.153   186188
[ constraints ] ; from mdp
11125 11126     1   0.1111   0.1111
[ constraints ] ; from mdp
11125 11127     1   0.1111   0.1111
[ bonds ]
11125 11128     1    0.153   186188    0.153   186188
[ constraints ] ; from mdp
11128 11129     1   0.1111   0.1111
[ constraints ] ; from mdp
11128 11130     1   0.1111   0.1111
[ bonds ]
11128 11131     1    0.153   186188    0.153   186188
[ constraints ] ; from mdp
11131 11132     1   0.1111   0.1111
[ constraints ] ; from mdp
11131 11133     1   0.1111   0.1111
[ bonds ]
11131 11134     1   0.1528   186188   0.1528   186188
[ constraints ] ; from mdp
11134 11135     1   0.1111   0.1111
[ constraints ] ; from mdp
11134 11136     1   0.1111   0.1111
[ constraints ] ; from mdp
11134 11137     1   0.1111   0.1111
[ constraints ] ; from mdp
11138 11139     1   0.1111   0.1111
[ constraints ] ; from mdp
11138 11140     1   0.1111   0.1111
[ bonds ]
11138 11141     1    0.153   186188    0.153   186188
[ constraints ] ; from mdp
11141 11142     1   0.1111   0.1111
[ constraints ] ; from mdp
11141 11143     1   0.1111   0.1111
[ bonds ]
11141 11144     1    0.153   186188    0.153   186188
[ constraints ] ; from mdp
11144 11145     1   0.1111   0.1111
[ constraints ] ; from mdp
11144 11146     1   0.1111   0.1111
[ bonds ]
11144 11147     1    0.153   186188    0.153   186188
[ constraints ] ; from mdp
11147 11148     1   0.1111   0.1111
[ constraints ] ; from mdp
11147 11149     1   0.1111   0.1111
[ bonds ]
11147 11150     1    0.153   186188    0.153   186188
[ constraints ] ; from mdp
11150 11151     1   0.1111   0.1111
[ constraints ] ; from mdp
11150 11152     1   0.1111   0.1111
[ bonds ]
11150 11153     1    0.153   186188    0.153   186188
[ constraints ] ; from mdp
11153 11154     1   0.1111   0.1111
[ constraints ] ; from mdp
11153 11155     1   0.1111   0.1111
[ bonds ]
11153 11156     1    0.153   186188    0.153   186188
[ constraints ] ; from mdp
11156 11157     1   0.1111   0.1111
[ constraints ] ; from mdp
11156 11158     1   0.1111   0.1111
[ bonds ]
11156 11159     1    0.153   186188    0.153   186188
[ constraints ] ; from mdp
11159 11160     1   0.1111   0.1111
[ constraints ] ; from mdp
11159 11161     1   0.1111   0.1111
[ bonds ]
11159 11162     1    0.153   186188    0.153   186188
[ constraints ] ; from mdp
11162 11163     1   0.1111   0.1111
[ constraints ] ; from mdp
11162 11164     1   0.1111   0.1111
[ bonds ]
11162 11165     1    0.153   186188    0.153   186188
[ constraints ] ; from mdp
11165 11166     1   0.1111   0.1111
[ constraints ] ; from mdp
11165 11167     1   0.1111   0.1111
[ bonds ]
11165 11168     1    0.153   186188    0.153   186188
[ constraints ] ; from mdp
11168 11169     1   0.1111   0.1111
[ constraints ] ; from mdp
11168 11170     1   0.1111   0.1111
[ bonds ]
11168 11171     1    0.153   186188    0.153   186188
[ constraints ] ; from mdp
11171 11172     1   0.1111   0.1111
[ constraints ] ; from mdp
11171 11173     1   0.1111   0.1111
[ bonds ]
11171 11174     1    0.153   186188    0.153   186188
[ constraints ] ; from mdp
11174 11175     1   0.1111   0.1111
[ constraints ] ; from mdp
11174 11176     1   0.1111   0.1111
[ bonds ]
11174 11177     1   0.1528   186188   0.1528   186188
[ constraints ] ; from mdp
11177 11178     1   0.1111   0.1111
[ constraints ] ; from mdp
11177 11179     1   0.1111   0.1111
[ constraints ] ; from mdp
11177 11180     1   0.1111   0.1111
[ bonds ]
11181 11182     1    0.151   179912    0.151   179912
[ bonds ]
11181 11186     1    0.151   179912    0.151   179912
[ bonds ]
11181 11190     1    0.151   179912    0.151   179912
[ bonds ]
11181 11194     1    0.151   179912    0.151   179912
[ constraints ] ; from mdp
11182 11183     1    0.108    0.108
[ constraints ] ; from mdp
11182 11184     1    0.108    0.108
[ constraints ] ; from mdp
11182 11185     1    0.108    0.108
[ constraints ] ; from mdp
11186 11187     1    0.108    0.108
[ constraints ] ; from mdp
11186 11188     1    0.108    0.108
[ constraints ] ; from mdp
11186 11189     1    0.108    0.108
[ constraints ] ; from mdp
11190 11191     1    0.108    0.108
[ constraints ] ; from mdp
11190 11192     1    0.108    0.108
[ constraints ] ; from mdp
11190 11193     1    0.108    0.108
[ constraints ] ; from mdp
11194 11195     1    0.108    0.108
[ constraints ] ; from mdp
11194 11196     1    0.108    0.108
[ bonds ]
11194 11197     1    0.153   186188    0.153   186188
[ constraints ] ; from mdp
11197 11198     1   0.1111   0.1111
[ constraints ] ; from mdp
11197 11199     1   0.1111   0.1111
[ bonds ]
11197 11204     1    0.143   284512    0.143   284512
[ bonds ]
11200 11201     1    0.148   485344    0.148   485344
[ bonds ]
11200 11202     1    0.148   485344    0.148   485344
[ bonds ]
11200 11203     1     0.16   225936     0.16   225936
[ bonds ]
11200 11204     1     0.16   225936     0.16   225936
[ bonds ]
11203 11205     1    0.143   284512    0.143   284512
[ constraints ] ; from mdp
11205 11206     1   0.1111   0.1111
[ constraints ] ; from mdp
11205 11207     1   0.1111   0.1111
[ bonds ]
11205 11208     1   0.1538   186188   0.1538   186188
[ constraints ] ; from mdp
11208 11209     1   0.1111   0.1111
[ bonds ]
11208 11210     1    0.143   284512    0.143   284512
[ bonds ]
11208 11216     1   0.1538   186188   0.1538   186188
[ bonds ]
11210 11211     1   0.1334   125520   0.1334   125520
[ bonds ]
11211 11212     1    0.122   627600    0.122   627600
[ bonds ]
11211 11213     1   0.1522   167360   0.1522   167360
[ constraints ] ; from mdp
11213 11214     1   0.1111   0.1111
[ constraints ] ; from mdp
11213 11215     1   0.1111   0.1111
[ bonds ]
11213 11225     1    0.153   186188    0.153   186188
[ constraints ] ; from mdp
11216 11217     1   0.1111   0.1111
[ constraints ] ; from mdp
11216 11218     1   0.1111   0.1111
[ bonds ]
11216 11219     1    0.143   284512    0.143   284512
[ bonds ]
11219 11220     1   0.1334   125520   0.1334   125520
[ bonds ]
11220 11221     1    0.122   627600    0.122   627600
[ bonds ]
11220 11222     1   0.1522   167360   0.1522   167360
[ constraints ] ; from mdp
11222 11223     1   0.1111   0.1111
[ constraints ] ; from mdp
11222 11224     1   0.1111   0.1111
[ bonds ]
11222 11268     1    0.153   186188    0.153   186188
[ constraints ] ; from mdp
11225 11226     1   0.1111   0.1111
[ constraints ] ; from mdp
11225 11227     1   0.1111   0.1111
[ bonds ]
11225 11228     1    0.153   186188    0.153   186188
[ constraints ] ; from mdp
11228 11229     1   0.1111   0.1111
[ constraints ] ; from mdp
11228 11230     1   0.1111   0.1111
[ bonds ]
11228 11231     1    0.153   186188    0.153   186188
[ constraints ] ; from mdp
11231 11232     1   0.1111   0.1111
[ constraints ] ; from mdp
11231 11233     1   0.1111   0.1111
[ bonds ]
11231 11234     1    0.153   186188    0.153   186188
[ constraints ] ; from mdp
11234 11235     1   0.1111   0.1111
[ constraints ] ; from mdp
11234 11236     1   0.1111   0.1111
[ bonds ]
11234 11237     1    0.153   186188    0.153   186188
[ constraints ] ; from mdp
11237 11238     1   0.1111   0.1111
[ constraints ] ; from mdp
11237 11239     1   0.1111   0.1111
[ bonds ]
11237 11240     1    0.153   186188    0.153   186188
[ constraints ] ; from mdp
11240 11241     1   0.1111   0.1111
[ constraints ] ; from mdp
11240 11242     1   0.1111   0.1111
[ bonds ]
11240 11243     1    0.153   186188    0.153   186188
[ constraints ] ; from mdp
11243 11244     1   0.1111   0.1111
[ constraints ] ; from mdp
11243 11245     1   0.1111   0.1111
[ bonds ]
11243 11246     1    0.153   186188    0.153   186188
[ constraints ] ; from mdp
11246 11247     1   0.1111   0.1111
[ constraints ] ; from mdp
11246 11248     1   0.1111   0.1111
[ bonds ]
11246 11249     1    0.153   186188    0.153   186188
[ constraints ] ; from mdp
11249 11250     1   0.1111   0.1111
[ constraints ] ; from mdp
11249 11251     1   0.1111   0.1111
[ bonds ]
11249 11252     1    0.153   186188    0.153   186188
[ constraints ] ; from mdp
11252 11253     1   0.1111   0.1111
[ constraints ] ; from mdp
11252 11254     1   0.1111   0.1111
[ bonds ]
11252 11255     1    0.153   186188    0.153   186188
[ constraints ] ; from mdp
11255 11256     1   0.1111   0.1111
[ constraints ] ; from mdp
11255 11257     1   0.1111   0.1111
[ bonds ]
11255 11258     1    0.153   186188    0.153   186188
[ constraints ] ; from mdp
11258 11259     1   0.1111   0.1111
[ constraints ] ; from mdp
11258 11260     1   0.1111   0.1111
[ bonds ]
11258 11261     1    0.153   186188    0.153   186188
[ constraints ] ; from mdp
11261 11262     1   0.1111   0.1111
[ constraints ] ; from mdp
11261 11263     1   0.1111   0.1111
[ bonds ]
11261 11264     1   0.1528   186188   0.1528   186188
[ constraints ] ; from mdp
11264 11265     1   0.1111   0.1111
[ constraints ] ; from mdp
11264 11266     1   0.1111   0.1111
[ constraints ] ; from mdp
11264 11267     1   0.1111   0.1111
[ constraints ] ; from mdp
11268 11269     1   0.1111   0.1111
[ constraints ] ; from mdp
11268 11270     1   0.1111   0.1111
[ bonds ]
11268 11271     1    0.153   186188    0.153   186188
[ constraints ] ; from mdp
11271 11272     1   0.1111   0.1111
[ constraints ] ; from mdp
11271 11273     1   0.1111   0.1111
[ bonds ]
11271 11274     1    0.153   186188    0.153   186188
[ constraints ] ; from mdp
11274 11275     1   0.1111   0.1111
[ constraints ] ; from mdp
11274 11276     1   0.1111   0.1111
[ bonds ]
11274 11277     1    0.153   186188    0.153   186188
[ constraints ] ; from mdp
11277 11278     1   0.1111   0.1111
[ constraints ] ; from mdp
11277 11279     1   0.1111   0.1111
[ bonds ]
11277 11280     1    0.153   186188    0.153   186188
[ constraints ] ; from mdp
11280 11281     1   0.1111   0.1111
[ constraints ] ; from mdp
11280 11282     1   0.1111   0.1111
[ bonds ]
11280 11283     1    0.153   186188    0.153   186188
[ constraints ] ; from mdp
11283 11284     1   0.1111   0.1111
[ constraints ] ; from mdp
11283 11285     1   0.1111   0.1111
[ bonds ]
11283 11286     1    0.153   186188    0.153   186188
[ constraints ] ; from mdp
11286 11287     1   0.1111   0.1111
[ constraints ] ; from mdp
11286 11288     1   0.1111   0.1111
[ bonds ]
11286 11289     1    0.153   186188    0.153   186188
[ constraints ] ; from mdp
11289 11290     1   0.1111   0.1111
[ constraints ] ; from mdp
11289 11291     1   0.1111   0.1111
[ bonds ]
11289 11292     1    0.153   186188    0.153   186188
[ constraints ] ; from mdp
11292 11293     1   0.1111   0.1111
[ constraints ] ; from mdp
11292 11294     1   0.1111   0.1111
[ bonds ]
11292 11295     1    0.153   186188    0.153   186188
[ constraints ] ; from mdp
11295 11296     1   0.1111   0.1111
[ constraints ] ; from mdp
11295 11297     1   0.1111   0.1111
[ bonds ]
11295 11298     1    0.153   186188    0.153   186188
[ constraints ] ; from mdp
11298 11299     1   0.1111   0.1111
[ constraints ] ; from mdp
11298 11300     1   0.1111   0.1111
[ bonds ]
11298 11301     1    0.153   186188    0.153   186188
[ constraints ] ; from mdp
11301 11302     1   0.1111   0.1111
[ constraints ] ; from mdp
11301 11303     1   0.1111   0.1111
[ bonds ]
11301 11304     1    0.153   186188    0.153   186188
[ constraints ] ; from mdp
11304 11305     1   0.1111   0.1111
[ constraints ] ; from mdp
11304 11306     1   0.1111   0.1111
[ bonds ]
11304 11307     1   0.1528   186188   0.1528   186188
[ constraints ] ; from mdp
11307 11308     1   0.1111   0.1111
[ constraints ] ; from mdp
11307 11309     1   0.1111   0.1111
[ constraints ] ; from mdp
11307 11310     1   0.1111   0.1111
[ bonds ]
11311 11312     1    0.151   179912    0.151   179912
[ bonds ]
11311 11316     1    0.151   179912    0.151   179912
[ bonds ]
11311 11320     1    0.151   179912    0.151   179912
[ bonds ]
11311 11324     1    0.151   179912    0.151   179912
[ constraints ] ; from mdp
11312 11313     1    0.108    0.108
[ constraints ] ; from mdp
11312 11314     1    0.108    0.108
[ constraints ] ; from mdp
11312 11315     1    0.108    0.108
[ constraints ] ; from mdp
11316 11317     1    0.108    0.108
[ constraints ] ; from mdp
11316 11318     1    0.108    0.108
[ constraints ] ; from mdp
11316 11319     1    0.108    0.108
[ constraints ] ; from mdp
11320 11321     1    0.108    0.108
[ constraints ] ; from mdp
11320 11322     1    0.108    0.108
[ constraints ] ; from mdp
11320 11323     1    0.108    0.108
[ constraints ] ; from mdp
11324 11325     1    0.108    0.108
[ constraints ] ; from mdp
11324 11326     1    0.108    0.108
[ bonds ]
11324 11327     1    0.153   186188    0.153   186188
[ constraints ] ; from mdp
11327 11328     1   0.1111   0.1111
[ constraints ] ; from mdp
11327 11329     1   0.1111   0.1111
[ bonds ]
11327 11334     1    0.143   284512    0.143   284512
[ bonds ]
11330 11331     1    0.148   485344    0.148   485344
[ bonds ]
11330 11332     1    0.148   485344    0.148   485344
[ bonds ]
11330 11333     1     0.16   225936     0.16   225936
[ bonds ]
11330 11334     1     0.16   225936     0.16   225936
[ bonds ]
11333 11335     1    0.143   284512    0.143   284512
[ constraints ] ; from mdp
11335 11336     1   0.1111   0.1111
[ constraints ] ; from mdp
11335 11337     1   0.1111   0.1111
[ bonds ]
11335 11338     1   0.1538   186188   0.1538   186188
[ constraints ] ; from mdp
11338 11339     1   0.1111   0.1111
[ bonds ]
11338 11340     1    0.143   284512    0.143   284512
[ bonds ]
11338 11346     1   0.1538   186188   0.1538   186188
[ bonds ]
11340 11341     1   0.1334   125520   0.1334   125520
[ bonds ]
11341 11342     1    0.122   627600    0.122   627600
[ bonds ]
11341 11343     1   0.1522   167360   0.1522   167360
[ constraints ] ; from mdp
11343 11344     1   0.1111   0.1111
[ constraints ] ; from mdp
11343 11345     1   0.1111   0.1111
[ bonds ]
11343 11355     1    0.153   186188    0.153   186188
[ constraints ] ; from mdp
11346 11347     1   0.1111   0.1111
[ constraints ] ; from mdp
11346 11348     1   0.1111   0.1111
[ bonds ]
11346 11349     1    0.143   284512    0.143   284512
[ bonds ]
11349 11350     1   0.1334   125520   0.1334   125520
[ bonds ]
11350 11351     1    0.122   627600    0.122   627600
[ bonds ]
11350 11352     1   0.1522   167360   0.1522   167360
[ constraints ] ; from mdp
11352 11353     1   0.1111   0.1111
[ constraints ] ; from mdp
11352 11354     1   0.1111   0.1111
[ bonds ]
11352 11398     1    0.153   186188    0.153   186188
[ constraints ] ; from mdp
11355 11356     1   0.1111   0.1111
[ constraints ] ; from mdp
11355 11357     1   0.1111   0.1111
[ bonds ]
11355 11358     1    0.153   186188    0.153   186188
[ constraints ] ; from mdp
11358 11359     1   0.1111   0.1111
[ constraints ] ; from mdp
11358 11360     1   0.1111   0.1111
[ bonds ]
11358 11361     1    0.153   186188    0.153   186188
[ constraints ] ; from mdp
11361 11362     1   0.1111   0.1111
[ constraints ] ; from mdp
11361 11363     1   0.1111   0.1111
[ bonds ]
11361 11364     1    0.153   186188    0.153   186188
[ constraints ] ; from mdp
11364 11365     1   0.1111   0.1111
[ constraints ] ; from mdp
11364 11366     1   0.1111   0.1111
[ bonds ]
11364 11367     1    0.153   186188    0.153   186188
[ constraints ] ; from mdp
11367 11368     1   0.1111   0.1111
[ constraints ] ; from mdp
11367 11369     1   0.1111   0.1111
[ bonds ]
11367 11370     1    0.153   186188    0.153   186188
[ constraints ] ; from mdp
11370 11371     1   0.1111   0.1111
[ constraints ] ; from mdp
11370 11372     1   0.1111   0.1111
[ bonds ]
11370 11373     1    0.153   186188    0.153   186188
[ constraints ] ; from mdp
11373 11374     1   0.1111   0.1111
[ constraints ] ; from mdp
11373 11375     1   0.1111   0.1111
[ bonds ]
11373 11376     1    0.153   186188    0.153   186188
[ constraints ] ; from mdp
11376 11377     1   0.1111   0.1111
[ constraints ] ; from mdp
11376 11378     1   0.1111   0.1111
[ bonds ]
11376 11379     1    0.153   186188    0.153   186188
[ constraints ] ; from mdp
11379 11380     1   0.1111   0.1111
[ constraints ] ; from mdp
11379 11381     1   0.1111   0.1111
[ bonds ]
11379 11382     1    0.153   186188    0.153   186188
[ constraints ] ; from mdp
11382 11383     1   0.1111   0.1111
[ constraints ] ; from mdp
11382 11384     1   0.1111   0.1111
[ bonds ]
11382 11385     1    0.153   186188    0.153   186188
[ constraints ] ; from mdp
11385 11386     1   0.1111   0.1111
[ constraints ] ; from mdp
11385 11387     1   0.1111   0.1111
[ bonds ]
11385 11388     1    0.153   186188    0.153   186188
[ constraints ] ; from mdp
11388 11389     1   0.1111   0.1111
[ constraints ] ; from mdp
11388 11390     1   0.1111   0.1111
[ bonds ]
11388 11391     1    0.153   186188    0.153   186188
[ constraints ] ; from mdp
11391 11392     1   0.1111   0.1111
[ constraints ] ; from mdp
11391 11393     1   0.1111   0.1111
[ bonds ]
11391 11394     1   0.1528   186188   0.1528   186188
[ constraints ] ; from mdp
11394 11395     1   0.1111   0.1111
[ constraints ] ; from mdp
11394 11396     1   0.1111   0.1111
[ constraints ] ; from mdp
11394 11397     1   0.1111   0.1111
[ constraints ] ; from mdp
11398 11399     1   0.1111   0.1111
[ constraints ] ; from mdp
11398 11400     1   0.1111   0.1111
[ bonds ]
11398 11401     1    0.153   186188    0.153   186188
[ constraints ] ; from mdp
11401 11402     1   0.1111   0.1111
[ constraints ] ; from mdp
11401 11403     1   0.1111   0.1111
[ bonds ]
11401 11404     1    0.153   186188    0.153   186188
[ constraints ] ; from mdp
11404 11405     1   0.1111   0.1111
[ constraints ] ; from mdp
11404 11406     1   0.1111   0.1111
[ bonds ]
11404 11407     1    0.153   186188    0.153   186188
[ constraints ] ; from mdp
11407 11408     1   0.1111   0.1111
[ constraints ] ; from mdp
11407 11409     1   0.1111   0.1111
[ bonds ]
11407 11410     1    0.153   186188    0.153   186188
[ constraints ] ; from mdp
11410 11411     1   0.1111   0.1111
[ constraints ] ; from mdp
11410 11412     1   0.1111   0.1111
[ bonds ]
11410 11413     1    0.153   186188    0.153   186188
[ constraints ] ; from mdp
11413 11414     1   0.1111   0.1111
[ constraints ] ; from mdp
11413 11415     1   0.1111   0.1111
[ bonds ]
11413 11416     1    0.153   186188    0.153   186188
[ constraints ] ; from mdp
11416 11417     1   0.1111   0.1111
[ constraints ] ; from mdp
11416 11418     1   0.1111   0.1111
[ bonds ]
11416 11419     1    0.153   186188    0.153   186188
[ constraints ] ; from mdp
11419 11420     1   0.1111   0.1111
[ constraints ] ; from mdp
11419 11421     1   0.1111   0.1111
[ bonds ]
11419 11422     1    0.153   186188    0.153   186188
[ constraints ] ; from mdp
11422 11423     1   0.1111   0.1111
[ constraints ] ; from mdp
11422 11424     1   0.1111   0.1111
[ bonds ]
11422 11425     1    0.153   186188    0.153   186188
[ constraints ] ; from mdp
11425 11426     1   0.1111   0.1111
[ constraints ] ; from mdp
11425 11427     1   0.1111   0.1111
[ bonds ]
11425 11428     1    0.153   186188    0.153   186188
[ constraints ] ; from mdp
11428 11429     1   0.1111   0.1111
[ constraints ] ; from mdp
11428 11430     1   0.1111   0.1111
[ bonds ]
11428 11431     1    0.153   186188    0.153   186188
[ constraints ] ; from mdp
11431 11432     1   0.1111   0.1111
[ constraints ] ; from mdp
11431 11433     1   0.1111   0.1111
[ bonds ]
11431 11434     1    0.153   186188    0.153   186188
[ constraints ] ; from mdp
11434 11435     1   0.1111   0.1111
[ constraints ] ; from mdp
11434 11436     1   0.1111   0.1111
[ bonds ]
11434 11437     1   0.1528   186188   0.1528   186188
[ constraints ] ; from mdp
11437 11438     1   0.1111   0.1111
[ constraints ] ; from mdp
11437 11439     1   0.1111   0.1111
[ constraints ] ; from mdp
11437 11440     1   0.1111   0.1111
[ bonds ]
11441 11442     1    0.151   179912    0.151   179912
[ bonds ]
11441 11446     1    0.151   179912    0.151   179912
[ bonds ]
11441 11450     1    0.151   179912    0.151   179912
[ bonds ]
11441 11454     1    0.151   179912    0.151   179912
[ constraints ] ; from mdp
11442 11443     1    0.108    0.108
[ constraints ] ; from mdp
11442 11444     1    0.108    0.108
[ constraints ] ; from mdp
11442 11445     1    0.108    0.108
[ constraints ] ; from mdp
11446 11447     1    0.108    0.108
[ constraints ] ; from mdp
11446 11448     1    0.108    0.108
[ constraints ] ; from mdp
11446 11449     1    0.108    0.108
[ constraints ] ; from mdp
11450 11451     1    0.108    0.108
[ constraints ] ; from mdp
11450 11452     1    0.108    0.108
[ constraints ] ; from mdp
11450 11453     1    0.108    0.108
[ constraints ] ; from mdp
11454 11455     1    0.108    0.108
[ constraints ] ; from mdp
11454 11456     1    0.108    0.108
[ bonds ]
11454 11457     1    0.153   186188    0.153   186188
[ constraints ] ; from mdp
11457 11458     1   0.1111   0.1111
[ constraints ] ; from mdp
11457 11459     1   0.1111   0.1111
[ bonds ]
11457 11464     1    0.143   284512    0.143   284512
[ bonds ]
11460 11461     1    0.148   485344    0.148   485344
[ bonds ]
11460 11462     1    0.148   485344    0.148   485344
[ bonds ]
11460 11463     1     0.16   225936     0.16   225936
[ bonds ]
11460 11464     1     0.16   225936     0.16   225936
[ bonds ]
11463 11465     1    0.143   284512    0.143   284512
[ constraints ] ; from mdp
11465 11466     1   0.1111   0.1111
[ constraints ] ; from mdp
11465 11467     1   0.1111   0.1111
[ bonds ]
11465 11468     1   0.1538   186188   0.1538   186188
[ constraints ] ; from mdp
11468 11469     1   0.1111   0.1111
[ bonds ]
11468 11470     1    0.143   284512    0.143   284512
[ bonds ]
11468 11476     1   0.1538   186188   0.1538   186188
[ bonds ]
11470 11471     1   0.1334   125520   0.1334   125520
[ bonds ]
11471 11472     1    0.122   627600    0.122   627600
[ bonds ]
11471 11473     1   0.1522   167360   0.1522   167360
[ constraints ] ; from mdp
11473 11474     1   0.1111   0.1111
[ constraints ] ; from mdp
11473 11475     1   0.1111   0.1111
[ bonds ]
11473 11485     1    0.153   186188    0.153   186188
[ constraints ] ; from mdp
11476 11477     1   0.1111   0.1111
[ constraints ] ; from mdp
11476 11478     1   0.1111   0.1111
[ bonds ]
11476 11479     1    0.143   284512    0.143   284512
[ bonds ]
11479 11480     1   0.1334   125520   0.1334   125520
[ bonds ]
11480 11481     1    0.122   627600    0.122   627600
[ bonds ]
11480 11482     1   0.1522   167360   0.1522   167360
[ constraints ] ; from mdp
11482 11483     1   0.1111   0.1111
[ constraints ] ; from mdp
11482 11484     1   0.1111   0.1111
[ bonds ]
11482 11528     1    0.153   186188    0.153   186188
[ constraints ] ; from mdp
11485 11486     1   0.1111   0.1111
[ constraints ] ; from mdp
11485 11487     1   0.1111   0.1111
[ bonds ]
11485 11488     1    0.153   186188    0.153   186188
[ constraints ] ; from mdp
11488 11489     1   0.1111   0.1111
[ constraints ] ; from mdp
11488 11490     1   0.1111   0.1111
[ bonds ]
11488 11491     1    0.153   186188    0.153   186188
[ constraints ] ; from mdp
11491 11492     1   0.1111   0.1111
[ constraints ] ; from mdp
11491 11493     1   0.1111   0.1111
[ bonds ]
11491 11494     1    0.153   186188    0.153   186188
[ constraints ] ; from mdp
11494 11495     1   0.1111   0.1111
[ constraints ] ; from mdp
11494 11496     1   0.1111   0.1111
[ bonds ]
11494 11497     1    0.153   186188    0.153   186188
[ constraints ] ; from mdp
11497 11498     1   0.1111   0.1111
[ constraints ] ; from mdp
11497 11499     1   0.1111   0.1111
[ bonds ]
11497 11500     1    0.153   186188    0.153   186188
[ constraints ] ; from mdp
11500 11501     1   0.1111   0.1111
[ constraints ] ; from mdp
11500 11502     1   0.1111   0.1111
[ bonds ]
11500 11503     1    0.153   186188    0.153   186188
[ constraints ] ; from mdp
11503 11504     1   0.1111   0.1111
[ constraints ] ; from mdp
11503 11505     1   0.1111   0.1111
[ bonds ]
11503 11506     1    0.153   186188    0.153   186188
[ constraints ] ; from mdp
11506 11507     1   0.1111   0.1111
[ constraints ] ; from mdp
11506 11508     1   0.1111   0.1111
[ bonds ]
11506 11509     1    0.153   186188    0.153   186188
[ constraints ] ; from mdp
11509 11510     1   0.1111   0.1111
[ constraints ] ; from mdp
11509 11511     1   0.1111   0.1111
[ bonds ]
11509 11512     1    0.153   186188    0.153   186188
[ constraints ] ; from mdp
11512 11513     1   0.1111   0.1111
[ constraints ] ; from mdp
11512 11514     1   0.1111   0.1111
[ bonds ]
11512 11515     1    0.153   186188    0.153   186188
[ constraints ] ; from mdp
11515 11516     1   0.1111   0.1111
[ constraints ] ; from mdp
11515 11517     1   0.1111   0.1111
[ bonds ]
11515 11518     1    0.153   186188    0.153   186188
[ constraints ] ; from mdp
11518 11519     1   0.1111   0.1111
[ constraints ] ; from mdp
11518 11520     1   0.1111   0.1111
[ bonds ]
11518 11521     1    0.153   186188    0.153   186188
[ constraints ] ; from mdp
11521 11522     1   0.1111   0.1111
[ constraints ] ; from mdp
11521 11523     1   0.1111   0.1111
[ bonds ]
11521 11524     1   0.1528   186188   0.1528   186188
[ constraints ] ; from mdp
11524 11525     1   0.1111   0.1111
[ constraints ] ; from mdp
11524 11526     1   0.1111   0.1111
[ constraints ] ; from mdp
11524 11527     1   0.1111   0.1111
[ constraints ] ; from mdp
11528 11529     1   0.1111   0.1111
[ constraints ] ; from mdp
11528 11530     1   0.1111   0.1111
[ bonds ]
11528 11531     1    0.153   186188    0.153   186188
[ constraints ] ; from mdp
11531 11532     1   0.1111   0.1111
[ constraints ] ; from mdp
11531 11533     1   0.1111   0.1111
[ bonds ]
11531 11534     1    0.153   186188    0.153   186188
[ constraints ] ; from mdp
11534 11535     1   0.1111   0.1111
[ constraints ] ; from mdp
11534 11536     1   0.1111   0.1111
[ bonds ]
11534 11537     1    0.153   186188    0.153   186188
[ constraints ] ; from mdp
11537 11538     1   0.1111   0.1111
[ constraints ] ; from mdp
11537 11539     1   0.1111   0.1111
[ bonds ]
11537 11540     1    0.153   186188    0.153   186188
[ constraints ] ; from mdp
11540 11541     1   0.1111   0.1111
[ constraints ] ; from mdp
11540 11542     1   0.1111   0.1111
[ bonds ]
11540 11543     1    0.153   186188    0.153   186188
[ constraints ] ; from mdp
11543 11544     1   0.1111   0.1111
[ constraints ] ; from mdp
11543 11545     1   0.1111   0.1111
[ bonds ]
11543 11546     1    0.153   186188    0.153   186188
[ constraints ] ; from mdp
11546 11547     1   0.1111   0.1111
[ constraints ] ; from mdp
11546 11548     1   0.1111   0.1111
[ bonds ]
11546 11549     1    0.153   186188    0.153   186188
[ constraints ] ; from mdp
11549 11550     1   0.1111   0.1111
[ constraints ] ; from mdp
11549 11551     1   0.1111   0.1111
[ bonds ]
11549 11552     1    0.153   186188    0.153   186188
[ constraints ] ; from mdp
11552 11553     1   0.1111   0.1111
[ constraints ] ; from mdp
11552 11554     1   0.1111   0.1111
[ bonds ]
11552 11555     1    0.153   186188    0.153   186188
[ constraints ] ; from mdp
11555 11556     1   0.1111   0.1111
[ constraints ] ; from mdp
11555 11557     1   0.1111   0.1111
[ bonds ]
11555 11558     1    0.153   186188    0.153   186188
[ constraints ] ; from mdp
11558 11559     1   0.1111   0.1111
[ constraints ] ; from mdp
11558 11560     1   0.1111   0.1111
[ bonds ]
11558 11561     1    0.153   186188    0.153   186188
[ constraints ] ; from mdp
11561 11562     1   0.1111   0.1111
[ constraints ] ; from mdp
11561 11563     1   0.1111   0.1111
[ bonds ]
11561 11564     1    0.153   186188    0.153   186188
[ constraints ] ; from mdp
11564 11565     1   0.1111   0.1111
[ constraints ] ; from mdp
11564 11566     1   0.1111   0.1111
[ bonds ]
11564 11567     1   0.1528   186188   0.1528   186188
[ constraints ] ; from mdp
11567 11568     1   0.1111   0.1111
[ constraints ] ; from mdp
11567 11569     1   0.1111   0.1111
[ constraints ] ; from mdp
11567 11570     1   0.1111   0.1111
[ bonds ]
11571 11572     1    0.151   179912    0.151   179912
[ bonds ]
11571 11576     1    0.151   179912    0.151   179912
[ bonds ]
11571 11580     1    0.151   179912    0.151   179912
[ bonds ]
11571 11584     1    0.151   179912    0.151   179912
[ constraints ] ; from mdp
11572 11573     1    0.108    0.108
[ constraints ] ; from mdp
11572 11574     1    0.108    0.108
[ constraints ] ; from mdp
11572 11575     1    0.108    0.108
[ constraints ] ; from mdp
11576 11577     1    0.108    0.108
[ constraints ] ; from mdp
11576 11578     1    0.108    0.108
[ constraints ] ; from mdp
11576 11579     1    0.108    0.108
[ constraints ] ; from mdp
11580 11581     1    0.108    0.108
[ constraints ] ; from mdp
11580 11582     1    0.108    0.108
[ constraints ] ; from mdp
11580 11583     1    0.108    0.108
[ constraints ] ; from mdp
11584 11585     1    0.108    0.108
[ constraints ] ; from mdp
11584 11586     1    0.108    0.108
[ bonds ]
11584 11587     1    0.153   186188    0.153   186188
[ constraints ] ; from mdp
11587 11588     1   0.1111   0.1111
[ constraints ] ; from mdp
11587 11589     1   0.1111   0.1111
[ bonds ]
11587 11594     1    0.143   284512    0.143   284512
[ bonds ]
11590 11591     1    0.148   485344    0.148   485344
[ bonds ]
11590 11592     1    0.148   485344    0.148   485344
[ bonds ]
11590 11593     1     0.16   225936     0.16   225936
[ bonds ]
11590 11594     1     0.16   225936     0.16   225936
[ bonds ]
11593 11595     1    0.143   284512    0.143   284512
[ constraints ] ; from mdp
11595 11596     1   0.1111   0.1111
[ constraints ] ; from mdp
11595 11597     1   0.1111   0.1111
[ bonds ]
11595 11598     1   0.1538   186188   0.1538   186188
[ constraints ] ; from mdp
11598 11599     1   0.1111   0.1111
[ bonds ]
11598 11600     1    0.143   284512    0.143   284512
[ bonds ]
11598 11606     1   0.1538   186188   0.1538   186188
[ bonds ]
11600 11601     1   0.1334   125520   0.1334   125520
[ bonds ]
11601 11602     1    0.122   627600    0.122   627600
[ bonds ]
11601 11603     1   0.1522   167360   0.1522   167360
[ constraints ] ; from mdp
11603 11604     1   0.1111   0.1111
[ constraints ] ; from mdp
11603 11605     1   0.1111   0.1111
[ bonds ]
11603 11615     1    0.153   186188    0.153   186188
[ constraints ] ; from mdp
11606 11607     1   0.1111   0.1111
[ constraints ] ; from mdp
11606 11608     1   0.1111   0.1111
[ bonds ]
11606 11609     1    0.143   284512    0.143   284512
[ bonds ]
11609 11610     1   0.1334   125520   0.1334   125520
[ bonds ]
11610 11611     1    0.122   627600    0.122   627600
[ bonds ]
11610 11612     1   0.1522   167360   0.1522   167360
[ constraints ] ; from mdp
11612 11613     1   0.1111   0.1111
[ constraints ] ; from mdp
11612 11614     1   0.1111   0.1111
[ bonds ]
11612 11658     1    0.153   186188    0.153   186188
[ constraints ] ; from mdp
11615 11616     1   0.1111   0.1111
[ constraints ] ; from mdp
11615 11617     1   0.1111   0.1111
[ bonds ]
11615 11618     1    0.153   186188    0.153   186188
[ constraints ] ; from mdp
11618 11619     1   0.1111   0.1111
[ constraints ] ; from mdp
11618 11620     1   0.1111   0.1111
[ bonds ]
11618 11621     1    0.153   186188    0.153   186188
[ constraints ] ; from mdp
11621 11622     1   0.1111   0.1111
[ constraints ] ; from mdp
11621 11623     1   0.1111   0.1111
[ bonds ]
11621 11624     1    0.153   186188    0.153   186188
[ constraints ] ; from mdp
11624 11625     1   0.1111   0.1111
[ constraints ] ; from mdp
11624 11626     1   0.1111   0.1111
[ bonds ]
11624 11627     1    0.153   186188    0.153   186188
[ constraints ] ; from mdp
11627 11628     1   0.1111   0.1111
[ constraints ] ; from mdp
11627 11629     1   0.1111   0.1111
[ bonds ]
11627 11630     1    0.153   186188    0.153   186188
[ constraints ] ; from mdp
11630 11631     1   0.1111   0.1111
[ constraints ] ; from mdp
11630 11632     1   0.1111   0.1111
[ bonds ]
11630 11633     1    0.153   186188    0.153   186188
[ constraints ] ; from mdp
11633 11634     1   0.1111   0.1111
[ constraints ] ; from mdp
11633 11635     1   0.1111   0.1111
[ bonds ]
11633 11636     1    0.153   186188    0.153   186188
[ constraints ] ; from mdp
11636 11637     1   0.1111   0.1111
[ constraints ] ; from mdp
11636 11638     1   0.1111   0.1111
[ bonds ]
11636 11639     1    0.153   186188    0.153   186188
[ constraints ] ; from mdp
11639 11640     1   0.1111   0.1111
[ constraints ] ; from mdp
11639 11641     1   0.1111   0.1111
[ bonds ]
11639 11642     1    0.153   186188    0.153   186188
[ constraints ] ; from mdp
11642 11643     1   0.1111   0.1111
[ constraints ] ; from mdp
11642 11644     1   0.1111   0.1111
[ bonds ]
11642 11645     1    0.153   186188    0.153   186188
[ constraints ] ; from mdp
11645 11646     1   0.1111   0.1111
[ constraints ] ; from mdp
11645 11647     1   0.1111   0.1111
[ bonds ]
11645 11648     1    0.153   186188    0.153   186188
[ constraints ] ; from mdp
11648 11649     1   0.1111   0.1111
[ constraints ] ; from mdp
11648 11650     1   0.1111   0.1111
[ bonds ]
11648 11651     1    0.153   186188    0.153   186188
[ constraints ] ; from mdp
11651 11652     1   0.1111   0.1111
[ constraints ] ; from mdp
11651 11653     1   0.1111   0.1111
[ bonds ]
11651 11654     1   0.1528   186188   0.1528   186188
[ constraints ] ; from mdp
11654 11655     1   0.1111   0.1111
[ constraints ] ; from mdp
11654 11656     1   0.1111   0.1111
[ constraints ] ; from mdp
11654 11657     1   0.1111   0.1111
[ constraints ] ; from mdp
11658 11659     1   0.1111   0.1111
[ constraints ] ; from mdp
11658 11660     1   0.1111   0.1111
[ bonds ]
11658 11661     1    0.153   186188    0.153   186188
[ constraints ] ; from mdp
11661 11662     1   0.1111   0.1111
[ constraints ] ; from mdp
11661 11663     1   0.1111   0.1111
[ bonds ]
11661 11664     1    0.153   186188    0.153   186188
[ constraints ] ; from mdp
11664 11665     1   0.1111   0.1111
[ constraints ] ; from mdp
11664 11666     1   0.1111   0.1111
[ bonds ]
11664 11667     1    0.153   186188    0.153   186188
[ constraints ] ; from mdp
11667 11668     1   0.1111   0.1111
[ constraints ] ; from mdp
11667 11669     1   0.1111   0.1111
[ bonds ]
11667 11670     1    0.153   186188    0.153   186188
[ constraints ] ; from mdp
11670 11671     1   0.1111   0.1111
[ constraints ] ; from mdp
11670 11672     1   0.1111   0.1111
[ bonds ]
11670 11673     1    0.153   186188    0.153   186188
[ constraints ] ; from mdp
11673 11674     1   0.1111   0.1111
[ constraints ] ; from mdp
11673 11675     1   0.1111   0.1111
[ bonds ]
11673 11676     1    0.153   186188    0.153   186188
[ constraints ] ; from mdp
11676 11677     1   0.1111   0.1111
[ constraints ] ; from mdp
11676 11678     1   0.1111   0.1111
[ bonds ]
11676 11679     1    0.153   186188    0.153   186188
[ constraints ] ; from mdp
11679 11680     1   0.1111   0.1111
[ constraints ] ; from mdp
11679 11681     1   0.1111   0.1111
[ bonds ]
11679 11682     1    0.153   186188    0.153   186188
[ constraints ] ; from mdp
11682 11683     1   0.1111   0.1111
[ constraints ] ; from mdp
11682 11684     1   0.1111   0.1111
[ bonds ]
11682 11685     1    0.153   186188    0.153   186188
[ constraints ] ; from mdp
11685 11686     1   0.1111   0.1111
[ constraints ] ; from mdp
11685 11687     1   0.1111   0.1111
[ bonds ]
11685 11688     1    0.153   186188    0.153   186188
[ constraints ] ; from mdp
11688 11689     1   0.1111   0.1111
[ constraints ] ; from mdp
11688 11690     1   0.1111   0.1111
[ bonds ]
11688 11691     1    0.153   186188    0.153   186188
[ constraints ] ; from mdp
11691 11692     1   0.1111   0.1111
[ constraints ] ; from mdp
11691 11693     1   0.1111   0.1111
[ bonds ]
11691 11694     1    0.153   186188    0.153   186188
[ constraints ] ; from mdp
11694 11695     1   0.1111   0.1111
[ constraints ] ; from mdp
11694 11696     1   0.1111   0.1111
[ bonds ]
11694 11697     1   0.1528   186188   0.1528   186188
[ constraints ] ; from mdp
11697 11698     1   0.1111   0.1111
[ constraints ] ; from mdp
11697 11699     1   0.1111   0.1111
[ constraints ] ; from mdp
11697 11700     1   0.1111   0.1111
[ bonds ]
11701 11702     1    0.151   179912    0.151   179912
[ bonds ]
11701 11706     1    0.151   179912    0.151   179912
[ bonds ]
11701 11710     1    0.151   179912    0.151   179912
[ bonds ]
11701 11714     1    0.151   179912    0.151   179912
[ constraints ] ; from mdp
11702 11703     1    0.108    0.108
[ constraints ] ; from mdp
11702 11704     1    0.108    0.108
[ constraints ] ; from mdp
11702 11705     1    0.108    0.108
[ constraints ] ; from mdp
11706 11707     1    0.108    0.108
[ constraints ] ; from mdp
11706 11708     1    0.108    0.108
[ constraints ] ; from mdp
11706 11709     1    0.108    0.108
[ constraints ] ; from mdp
11710 11711     1    0.108    0.108
[ constraints ] ; from mdp
11710 11712     1    0.108    0.108
[ constraints ] ; from mdp
11710 11713     1    0.108    0.108
[ constraints ] ; from mdp
11714 11715     1    0.108    0.108
[ constraints ] ; from mdp
11714 11716     1    0.108    0.108
[ bonds ]
11714 11717     1    0.153   186188    0.153   186188
[ constraints ] ; from mdp
11717 11718     1   0.1111   0.1111
[ constraints ] ; from mdp
11717 11719     1   0.1111   0.1111
[ bonds ]
11717 11724     1    0.143   284512    0.143   284512
[ bonds ]
11720 11721     1    0.148   485344    0.148   485344
[ bonds ]
11720 11722     1    0.148   485344    0.148   485344
[ bonds ]
11720 11723     1     0.16   225936     0.16   225936
[ bonds ]
11720 11724     1     0.16   225936     0.16   225936
[ bonds ]
11723 11725     1    0.143   284512    0.143   284512
[ constraints ] ; from mdp
11725 11726     1   0.1111   0.1111
[ constraints ] ; from mdp
11725 11727     1   0.1111   0.1111
[ bonds ]
11725 11728     1   0.1538   186188   0.1538   186188
[ constraints ] ; from mdp
11728 11729     1   0.1111   0.1111
[ bonds ]
11728 11730     1    0.143   284512    0.143   284512
[ bonds ]
11728 11736     1   0.1538   186188   0.1538   186188
[ bonds ]
11730 11731     1   0.1334   125520   0.1334   125520
[ bonds ]
11731 11732     1    0.122   627600    0.122   627600
[ bonds ]
11731 11733     1   0.1522   167360   0.1522   167360
[ constraints ] ; from mdp
11733 11734     1   0.1111   0.1111
[ constraints ] ; from mdp
11733 11735     1   0.1111   0.1111
[ bonds ]
11733 11745     1    0.153   186188    0.153   186188
[ constraints ] ; from mdp
11736 11737     1   0.1111   0.1111
[ constraints ] ; from mdp
11736 11738     1   0.1111   0.1111
[ bonds ]
11736 11739     1    0.143   284512    0.143   284512
[ bonds ]
11739 11740     1   0.1334   125520   0.1334   125520
[ bonds ]
11740 11741     1    0.122   627600    0.122   627600
[ bonds ]
11740 11742     1   0.1522   167360   0.1522   167360
[ constraints ] ; from mdp
11742 11743     1   0.1111   0.1111
[ constraints ] ; from mdp
11742 11744     1   0.1111   0.1111
[ bonds ]
11742 11788     1    0.153   186188    0.153   186188
[ constraints ] ; from mdp
11745 11746     1   0.1111   0.1111
[ constraints ] ; from mdp
11745 11747     1   0.1111   0.1111
[ bonds ]
11745 11748     1    0.153   186188    0.153   186188
[ constraints ] ; from mdp
11748 11749     1   0.1111   0.1111
[ constraints ] ; from mdp
11748 11750     1   0.1111   0.1111
[ bonds ]
11748 11751     1    0.153   186188    0.153   186188
[ constraints ] ; from mdp
11751 11752     1   0.1111   0.1111
[ constraints ] ; from mdp
11751 11753     1   0.1111   0.1111
[ bonds ]
11751 11754     1    0.153   186188    0.153   186188
[ constraints ] ; from mdp
11754 11755     1   0.1111   0.1111
[ constraints ] ; from mdp
11754 11756     1   0.1111   0.1111
[ bonds ]
11754 11757     1    0.153   186188    0.153   186188
[ constraints ] ; from mdp
11757 11758     1   0.1111   0.1111
[ constraints ] ; from mdp
11757 11759     1   0.1111   0.1111
[ bonds ]
11757 11760     1    0.153   186188    0.153   186188
[ constraints ] ; from mdp
11760 11761     1   0.1111   0.1111
[ constraints ] ; from mdp
11760 11762     1   0.1111   0.1111
[ bonds ]
11760 11763     1    0.153   186188    0.153   186188
[ constraints ] ; from mdp
11763 11764     1   0.1111   0.1111
[ constraints ] ; from mdp
11763 11765     1   0.1111   0.1111
[ bonds ]
11763 11766     1    0.153   186188    0.153   186188
[ constraints ] ; from mdp
11766 11767     1   0.1111   0.1111
[ constraints ] ; from mdp
11766 11768     1   0.1111   0.1111
[ bonds ]
11766 11769     1    0.153   186188    0.153   186188
[ constraints ] ; from mdp
11769 11770     1   0.1111   0.1111
[ constraints ] ; from mdp
11769 11771     1   0.1111   0.1111
[ bonds ]
11769 11772     1    0.153   186188    0.153   186188
[ constraints ] ; from mdp
11772 11773     1   0.1111   0.1111
[ constraints ] ; from mdp
11772 11774     1   0.1111   0.1111
[ bonds ]
11772 11775     1    0.153   186188    0.153   186188
[ constraints ] ; from mdp
11775 11776     1   0.1111   0.1111
[ constraints ] ; from mdp
11775 11777     1   0.1111   0.1111
[ bonds ]
11775 11778     1    0.153   186188    0.153   186188
[ constraints ] ; from mdp
11778 11779     1   0.1111   0.1111
[ constraints ] ; from mdp
11778 11780     1   0.1111   0.1111
[ bonds ]
11778 11781     1    0.153   186188    0.153   186188
[ constraints ] ; from mdp
11781 11782     1   0.1111   0.1111
[ constraints ] ; from mdp
11781 11783     1   0.1111   0.1111
[ bonds ]
11781 11784     1   0.1528   186188   0.1528   186188
[ constraints ] ; from mdp
11784 11785     1   0.1111   0.1111
[ constraints ] ; from mdp
11784 11786     1   0.1111   0.1111
[ constraints ] ; from mdp
11784 11787     1   0.1111   0.1111
[ constraints ] ; from mdp
11788 11789     1   0.1111   0.1111
[ constraints ] ; from mdp
11788 11790     1   0.1111   0.1111
[ bonds ]
11788 11791     1    0.153   186188    0.153   186188
[ constraints ] ; from mdp
11791 11792     1   0.1111   0.1111
[ constraints ] ; from mdp
11791 11793     1   0.1111   0.1111
[ bonds ]
11791 11794     1    0.153   186188    0.153   186188
[ constraints ] ; from mdp
11794 11795     1   0.1111   0.1111
[ constraints ] ; from mdp
11794 11796     1   0.1111   0.1111
[ bonds ]
11794 11797     1    0.153   186188    0.153   186188
[ constraints ] ; from mdp
11797 11798     1   0.1111   0.1111
[ constraints ] ; from mdp
11797 11799     1   0.1111   0.1111
[ bonds ]
11797 11800     1    0.153   186188    0.153   186188
[ constraints ] ; from mdp
11800 11801     1   0.1111   0.1111
[ constraints ] ; from mdp
11800 11802     1   0.1111   0.1111
[ bonds ]
11800 11803     1    0.153   186188    0.153   186188
[ constraints ] ; from mdp
11803 11804     1   0.1111   0.1111
[ constraints ] ; from mdp
11803 11805     1   0.1111   0.1111
[ bonds ]
11803 11806     1    0.153   186188    0.153   186188
[ constraints ] ; from mdp
11806 11807     1   0.1111   0.1111
[ constraints ] ; from mdp
11806 11808     1   0.1111   0.1111
[ bonds ]
11806 11809     1    0.153   186188    0.153   186188
[ constraints ] ; from mdp
11809 11810     1   0.1111   0.1111
[ constraints ] ; from mdp
11809 11811     1   0.1111   0.1111
[ bonds ]
11809 11812     1    0.153   186188    0.153   186188
[ constraints ] ; from mdp
11812 11813     1   0.1111   0.1111
[ constraints ] ; from mdp
11812 11814     1   0.1111   0.1111
[ bonds ]
11812 11815     1    0.153   186188    0.153   186188
[ constraints ] ; from mdp
11815 11816     1   0.1111   0.1111
[ constraints ] ; from mdp
11815 11817     1   0.1111   0.1111
[ bonds ]
11815 11818     1    0.153   186188    0.153   186188
[ constraints ] ; from mdp
11818 11819     1   0.1111   0.1111
[ constraints ] ; from mdp
11818 11820     1   0.1111   0.1111
[ bonds ]
11818 11821     1    0.153   186188    0.153   186188
[ constraints ] ; from mdp
11821 11822     1   0.1111   0.1111
[ constraints ] ; from mdp
11821 11823     1   0.1111   0.1111
[ bonds ]
11821 11824     1    0.153   186188    0.153   186188
[ constraints ] ; from mdp
11824 11825     1   0.1111   0.1111
[ constraints ] ; from mdp
11824 11826     1   0.1111   0.1111
[ bonds ]
11824 11827     1   0.1528   186188   0.1528   186188
[ constraints ] ; from mdp
11827 11828     1   0.1111   0.1111
[ constraints ] ; from mdp
11827 11829     1   0.1111   0.1111
[ constraints ] ; from mdp
11827 11830     1   0.1111   0.1111
[ bonds ]
11831 11832     1    0.151   179912    0.151   179912
[ bonds ]
11831 11836     1    0.151   179912    0.151   179912
[ bonds ]
11831 11840     1    0.151   179912    0.151   179912
[ bonds ]
11831 11844     1    0.151   179912    0.151   179912
[ constraints ] ; from mdp
11832 11833     1    0.108    0.108
[ constraints ] ; from mdp
11832 11834     1    0.108    0.108
[ constraints ] ; from mdp
11832 11835     1    0.108    0.108
[ constraints ] ; from mdp
11836 11837     1    0.108    0.108
[ constraints ] ; from mdp
11836 11838     1    0.108    0.108
[ constraints ] ; from mdp
11836 11839     1    0.108    0.108
[ constraints ] ; from mdp
11840 11841     1    0.108    0.108
[ constraints ] ; from mdp
11840 11842     1    0.108    0.108
[ constraints ] ; from mdp
11840 11843     1    0.108    0.108
[ constraints ] ; from mdp
11844 11845     1    0.108    0.108
[ constraints ] ; from mdp
11844 11846     1    0.108    0.108
[ bonds ]
11844 11847     1    0.153   186188    0.153   186188
[ constraints ] ; from mdp
11847 11848     1   0.1111   0.1111
[ constraints ] ; from mdp
11847 11849     1   0.1111   0.1111
[ bonds ]
11847 11854     1    0.143   284512    0.143   284512
[ bonds ]
11850 11851     1    0.148   485344    0.148   485344
[ bonds ]
11850 11852     1    0.148   485344    0.148   485344
[ bonds ]
11850 11853     1     0.16   225936     0.16   225936
[ bonds ]
11850 11854     1     0.16   225936     0.16   225936
[ bonds ]
11853 11855     1    0.143   284512    0.143   284512
[ constraints ] ; from mdp
11855 11856     1   0.1111   0.1111
[ constraints ] ; from mdp
11855 11857     1   0.1111   0.1111
[ bonds ]
11855 11858     1   0.1538   186188   0.1538   186188
[ constraints ] ; from mdp
11858 11859     1   0.1111   0.1111
[ bonds ]
11858 11860     1    0.143   284512    0.143   284512
[ bonds ]
11858 11866     1   0.1538   186188   0.1538   186188
[ bonds ]
11860 11861     1   0.1334   125520   0.1334   125520
[ bonds ]
11861 11862     1    0.122   627600    0.122   627600
[ bonds ]
11861 11863     1   0.1522   167360   0.1522   167360
[ constraints ] ; from mdp
11863 11864     1   0.1111   0.1111
[ constraints ] ; from mdp
11863 11865     1   0.1111   0.1111
[ bonds ]
11863 11875     1    0.153   186188    0.153   186188
[ constraints ] ; from mdp
11866 11867     1   0.1111   0.1111
[ constraints ] ; from mdp
11866 11868     1   0.1111   0.1111
[ bonds ]
11866 11869     1    0.143   284512    0.143   284512
[ bonds ]
11869 11870     1   0.1334   125520   0.1334   125520
[ bonds ]
11870 11871     1    0.122   627600    0.122   627600
[ bonds ]
11870 11872     1   0.1522   167360   0.1522   167360
[ constraints ] ; from mdp
11872 11873     1   0.1111   0.1111
[ constraints ] ; from mdp
11872 11874     1   0.1111   0.1111
[ bonds ]
11872 11918     1    0.153   186188    0.153   186188
[ constraints ] ; from mdp
11875 11876     1   0.1111   0.1111
[ constraints ] ; from mdp
11875 11877     1   0.1111   0.1111
[ bonds ]
11875 11878     1    0.153   186188    0.153   186188
[ constraints ] ; from mdp
11878 11879     1   0.1111   0.1111
[ constraints ] ; from mdp
11878 11880     1   0.1111   0.1111
[ bonds ]
11878 11881     1    0.153   186188    0.153   186188
[ constraints ] ; from mdp
11881 11882     1   0.1111   0.1111
[ constraints ] ; from mdp
11881 11883     1   0.1111   0.1111
[ bonds ]
11881 11884     1    0.153   186188    0.153   186188
[ constraints ] ; from mdp
11884 11885     1   0.1111   0.1111
[ constraints ] ; from mdp
11884 11886     1   0.1111   0.1111
[ bonds ]
11884 11887     1    0.153   186188    0.153   186188
[ constraints ] ; from mdp
11887 11888     1   0.1111   0.1111
[ constraints ] ; from mdp
11887 11889     1   0.1111   0.1111
[ bonds ]
11887 11890     1    0.153   186188    0.153   186188
[ constraints ] ; from mdp
11890 11891     1   0.1111   0.1111
[ constraints ] ; from mdp
11890 11892     1   0.1111   0.1111
[ bonds ]
11890 11893     1    0.153   186188    0.153   186188
[ constraints ] ; from mdp
11893 11894     1   0.1111   0.1111
[ constraints ] ; from mdp
11893 11895     1   0.1111   0.1111
[ bonds ]
11893 11896     1    0.153   186188    0.153   186188
[ constraints ] ; from mdp
11896 11897     1   0.1111   0.1111
[ constraints ] ; from mdp
11896 11898     1   0.1111   0.1111
[ bonds ]
11896 11899     1    0.153   186188    0.153   186188
[ constraints ] ; from mdp
11899 11900     1   0.1111   0.1111
[ constraints ] ; from mdp
11899 11901     1   0.1111   0.1111
[ bonds ]
11899 11902     1    0.153   186188    0.153   186188
[ constraints ] ; from mdp
11902 11903     1   0.1111   0.1111
[ constraints ] ; from mdp
11902 11904     1   0.1111   0.1111
[ bonds ]
11902 11905     1    0.153   186188    0.153   186188
[ constraints ] ; from mdp
11905 11906     1   0.1111   0.1111
[ constraints ] ; from mdp
11905 11907     1   0.1111   0.1111
[ bonds ]
11905 11908     1    0.153   186188    0.153   186188
[ constraints ] ; from mdp
11908 11909     1   0.1111   0.1111
[ constraints ] ; from mdp
11908 11910     1   0.1111   0.1111
[ bonds ]
11908 11911     1    0.153   186188    0.153   186188
[ constraints ] ; from mdp
11911 11912     1   0.1111   0.1111
[ constraints ] ; from mdp
11911 11913     1   0.1111   0.1111
[ bonds ]
11911 11914     1   0.1528   186188   0.1528   186188
[ constraints ] ; from mdp
11914 11915     1   0.1111   0.1111
[ constraints ] ; from mdp
11914 11916     1   0.1111   0.1111
[ constraints ] ; from mdp
11914 11917     1   0.1111   0.1111
[ constraints ] ; from mdp
11918 11919     1   0.1111   0.1111
[ constraints ] ; from mdp
11918 11920     1   0.1111   0.1111
[ bonds ]
11918 11921     1    0.153   186188    0.153   186188
[ constraints ] ; from mdp
11921 11922     1   0.1111   0.1111
[ constraints ] ; from mdp
11921 11923     1   0.1111   0.1111
[ bonds ]
11921 11924     1    0.153   186188    0.153   186188
[ constraints ] ; from mdp
11924 11925     1   0.1111   0.1111
[ constraints ] ; from mdp
11924 11926     1   0.1111   0.1111
[ bonds ]
11924 11927     1    0.153   186188    0.153   186188
[ constraints ] ; from mdp
11927 11928     1   0.1111   0.1111
[ constraints ] ; from mdp
11927 11929     1   0.1111   0.1111
[ bonds ]
11927 11930     1    0.153   186188    0.153   186188
[ constraints ] ; from mdp
11930 11931     1   0.1111   0.1111
[ constraints ] ; from mdp
11930 11932     1   0.1111   0.1111
[ bonds ]
11930 11933     1    0.153   186188    0.153   186188
[ constraints ] ; from mdp
11933 11934     1   0.1111   0.1111
[ constraints ] ; from mdp
11933 11935     1   0.1111   0.1111
[ bonds ]
11933 11936     1    0.153   186188    0.153   186188
[ constraints ] ; from mdp
11936 11937     1   0.1111   0.1111
[ constraints ] ; from mdp
11936 11938     1   0.1111   0.1111
[ bonds ]
11936 11939     1    0.153   186188    0.153   186188
[ constraints ] ; from mdp
11939 11940     1   0.1111   0.1111
[ constraints ] ; from mdp
11939 11941     1   0.1111   0.1111
[ bonds ]
11939 11942     1    0.153   186188    0.153   186188
[ constraints ] ; from mdp
11942 11943     1   0.1111   0.1111
[ constraints ] ; from mdp
11942 11944     1   0.1111   0.1111
[ bonds ]
11942 11945     1    0.153   186188    0.153   186188
[ constraints ] ; from mdp
11945 11946     1   0.1111   0.1111
[ constraints ] ; from mdp
11945 11947     1   0.1111   0.1111
[ bonds ]
11945 11948     1    0.153   186188    0.153   186188
[ constraints ] ; from mdp
11948 11949     1   0.1111   0.1111
[ constraints ] ; from mdp
11948 11950     1   0.1111   0.1111
[ bonds ]
11948 11951     1    0.153   186188    0.153   186188
[ constraints ] ; from mdp
11951 11952     1   0.1111   0.1111
[ constraints ] ; from mdp
11951 11953     1   0.1111   0.1111
[ bonds ]
11951 11954     1    0.153   186188    0.153   186188
[ constraints ] ; from mdp
11954 11955     1   0.1111   0.1111
[ constraints ] ; from mdp
11954 11956     1   0.1111   0.1111
[ bonds ]
11954 11957     1   0.1528   186188   0.1528   186188
[ constraints ] ; from mdp
11957 11958     1   0.1111   0.1111
[ constraints ] ; from mdp
11957 11959     1   0.1111   0.1111
[ constraints ] ; from mdp
11957 11960     1   0.1111   0.1111
[ bonds ]
11961 11962     1    0.151   179912    0.151   179912
[ bonds ]
11961 11966     1    0.151   179912    0.151   179912
[ bonds ]
11961 11970     1    0.151   179912    0.151   179912
[ bonds ]
11961 11974     1    0.151   179912    0.151   179912
[ constraints ] ; from mdp
11962 11963     1    0.108    0.108
[ constraints ] ; from mdp
11962 11964     1    0.108    0.108
[ constraints ] ; from mdp
11962 11965     1    0.108    0.108
[ constraints ] ; from mdp
11966 11967     1    0.108    0.108
[ constraints ] ; from mdp
11966 11968     1    0.108    0.108
[ constraints ] ; from mdp
11966 11969     1    0.108    0.108
[ constraints ] ; from mdp
11970 11971     1    0.108    0.108
[ constraints ] ; from mdp
11970 11972     1    0.108    0.108
[ constraints ] ; from mdp
11970 11973     1    0.108    0.108
[ constraints ] ; from mdp
11974 11975     1    0.108    0.108
[ constraints ] ; from mdp
11974 11976     1    0.108    0.108
[ bonds ]
11974 11977     1    0.153   186188    0.153   186188
[ constraints ] ; from mdp
11977 11978     1   0.1111   0.1111
[ constraints ] ; from mdp
11977 11979     1   0.1111   0.1111
[ bonds ]
11977 11984     1    0.143   284512    0.143   284512
[ bonds ]
11980 11981     1    0.148   485344    0.148   485344
[ bonds ]
11980 11982     1    0.148   485344    0.148   485344
[ bonds ]
11980 11983     1     0.16   225936     0.16   225936
[ bonds ]
11980 11984     1     0.16   225936     0.16   225936
[ bonds ]
11983 11985     1    0.143   284512    0.143   284512
[ constraints ] ; from mdp
11985 11986     1   0.1111   0.1111
[ constraints ] ; from mdp
11985 11987     1   0.1111   0.1111
[ bonds ]
11985 11988     1   0.1538   186188   0.1538   186188
[ constraints ] ; from mdp
11988 11989     1   0.1111   0.1111
[ bonds ]
11988 11990     1    0.143   284512    0.143   284512
[ bonds ]
11988 11996     1   0.1538   186188   0.1538   186188
[ bonds ]
11990 11991     1   0.1334   125520   0.1334   125520
[ bonds ]
11991 11992     1    0.122   627600    0.122   627600
[ bonds ]
11991 11993     1   0.1522   167360   0.1522   167360
[ constraints ] ; from mdp
11993 11994     1   0.1111   0.1111
[ constraints ] ; from mdp
11993 11995     1   0.1111   0.1111
[ bonds ]
11993 12005     1    0.153   186188    0.153   186188
[ constraints ] ; from mdp
11996 11997     1   0.1111   0.1111
[ constraints ] ; from mdp
11996 11998     1   0.1111   0.1111
[ bonds ]
11996 11999     1    0.143   284512    0.143   284512
[ bonds ]
11999 12000     1   0.1334   125520   0.1334   125520
[ bonds ]
12000 12001     1    0.122   627600    0.122   627600
[ bonds ]
12000 12002     1   0.1522   167360   0.1522   167360
[ constraints ] ; from mdp
12002 12003     1   0.1111   0.1111
[ constraints ] ; from mdp
12002 12004     1   0.1111   0.1111
[ bonds ]
12002 12048     1    0.153   186188    0.153   186188
[ constraints ] ; from mdp
12005 12006     1   0.1111   0.1111
[ constraints ] ; from mdp
12005 12007     1   0.1111   0.1111
[ bonds ]
12005 12008     1    0.153   186188    0.153   186188
[ constraints ] ; from mdp
12008 12009     1   0.1111   0.1111
[ constraints ] ; from mdp
12008 12010     1   0.1111   0.1111
[ bonds ]
12008 12011     1    0.153   186188    0.153   186188
[ constraints ] ; from mdp
12011 12012     1   0.1111   0.1111
[ constraints ] ; from mdp
12011 12013     1   0.1111   0.1111
[ bonds ]
12011 12014     1    0.153   186188    0.153   186188
[ constraints ] ; from mdp
12014 12015     1   0.1111   0.1111
[ constraints ] ; from mdp
12014 12016     1   0.1111   0.1111
[ bonds ]
12014 12017     1    0.153   186188    0.153   186188
[ constraints ] ; from mdp
12017 12018     1   0.1111   0.1111
[ constraints ] ; from mdp
12017 12019     1   0.1111   0.1111
[ bonds ]
12017 12020     1    0.153   186188    0.153   186188
[ constraints ] ; from mdp
12020 12021     1   0.1111   0.1111
[ constraints ] ; from mdp
12020 12022     1   0.1111   0.1111
[ bonds ]
12020 12023     1    0.153   186188    0.153   186188
[ constraints ] ; from mdp
12023 12024     1   0.1111   0.1111
[ constraints ] ; from mdp
12023 12025     1   0.1111   0.1111
[ bonds ]
12023 12026     1    0.153   186188    0.153   186188
[ constraints ] ; from mdp
12026 12027     1   0.1111   0.1111
[ constraints ] ; from mdp
12026 12028     1   0.1111   0.1111
[ bonds ]
12026 12029     1    0.153   186188    0.153   186188
[ constraints ] ; from mdp
12029 12030     1   0.1111   0.1111
[ constraints ] ; from mdp
12029 12031     1   0.1111   0.1111
[ bonds ]
12029 12032     1    0.153   186188    0.153   186188
[ constraints ] ; from mdp
12032 12033     1   0.1111   0.1111
[ constraints ] ; from mdp
12032 12034     1   0.1111   0.1111
[ bonds ]
12032 12035     1    0.153   186188    0.153   186188
[ constraints ] ; from mdp
12035 12036     1   0.1111   0.1111
[ constraints ] ; from mdp
12035 12037     1   0.1111   0.1111
[ bonds ]
12035 12038     1    0.153   186188    0.153   186188
[ constraints ] ; from mdp
12038 12039     1   0.1111   0.1111
[ constraints ] ; from mdp
12038 12040     1   0.1111   0.1111
[ bonds ]
12038 12041     1    0.153   186188    0.153   186188
[ constraints ] ; from mdp
12041 12042     1   0.1111   0.1111
[ constraints ] ; from mdp
12041 12043     1   0.1111   0.1111
[ bonds ]
12041 12044     1   0.1528   186188   0.1528   186188
[ constraints ] ; from mdp
12044 12045     1   0.1111   0.1111
[ constraints ] ; from mdp
12044 12046     1   0.1111   0.1111
[ constraints ] ; from mdp
12044 12047     1   0.1111   0.1111
[ constraints ] ; from mdp
12048 12049     1   0.1111   0.1111
[ constraints ] ; from mdp
12048 12050     1   0.1111   0.1111
[ bonds ]
12048 12051     1    0.153   186188    0.153   186188
[ constraints ] ; from mdp
12051 12052     1   0.1111   0.1111
[ constraints ] ; from mdp
12051 12053     1   0.1111   0.1111
[ bonds ]
12051 12054     1    0.153   186188    0.153   186188
[ constraints ] ; from mdp
12054 12055     1   0.1111   0.1111
[ constraints ] ; from mdp
12054 12056     1   0.1111   0.1111
[ bonds ]
12054 12057     1    0.153   186188    0.153   186188
[ constraints ] ; from mdp
12057 12058     1   0.1111   0.1111
[ constraints ] ; from mdp
12057 12059     1   0.1111   0.1111
[ bonds ]
12057 12060     1    0.153   186188    0.153   186188
[ constraints ] ; from mdp
12060 12061     1   0.1111   0.1111
[ constraints ] ; from mdp
12060 12062     1   0.1111   0.1111
[ bonds ]
12060 12063     1    0.153   186188    0.153   186188
[ constraints ] ; from mdp
12063 12064     1   0.1111   0.1111
[ constraints ] ; from mdp
12063 12065     1   0.1111   0.1111
[ bonds ]
12063 12066     1    0.153   186188    0.153   186188
[ constraints ] ; from mdp
12066 12067     1   0.1111   0.1111
[ constraints ] ; from mdp
12066 12068     1   0.1111   0.1111
[ bonds ]
12066 12069     1    0.153   186188    0.153   186188
[ constraints ] ; from mdp
12069 12070     1   0.1111   0.1111
[ constraints ] ; from mdp
12069 12071     1   0.1111   0.1111
[ bonds ]
12069 12072     1    0.153   186188    0.153   186188
[ constraints ] ; from mdp
12072 12073     1   0.1111   0.1111
[ constraints ] ; from mdp
12072 12074     1   0.1111   0.1111
[ bonds ]
12072 12075     1    0.153   186188    0.153   186188
[ constraints ] ; from mdp
12075 12076     1   0.1111   0.1111
[ constraints ] ; from mdp
12075 12077     1   0.1111   0.1111
[ bonds ]
12075 12078     1    0.153   186188    0.153   186188
[ constraints ] ; from mdp
12078 12079     1   0.1111   0.1111
[ constraints ] ; from mdp
12078 12080     1   0.1111   0.1111
[ bonds ]
12078 12081     1    0.153   186188    0.153   186188
[ constraints ] ; from mdp
12081 12082     1   0.1111   0.1111
[ constraints ] ; from mdp
12081 12083     1   0.1111   0.1111
[ bonds ]
12081 12084     1    0.153   186188    0.153   186188
[ constraints ] ; from mdp
12084 12085     1   0.1111   0.1111
[ constraints ] ; from mdp
12084 12086     1   0.1111   0.1111
[ bonds ]
12084 12087     1   0.1528   186188   0.1528   186188
[ constraints ] ; from mdp
12087 12088     1   0.1111   0.1111
[ constraints ] ; from mdp
12087 12089     1   0.1111   0.1111
[ constraints ] ; from mdp
12087 12090     1   0.1111   0.1111
[ bonds ]
12091 12092     1    0.151   179912    0.151   179912
[ bonds ]
12091 12096     1    0.151   179912    0.151   179912
[ bonds ]
12091 12100     1    0.151   179912    0.151   179912
[ bonds ]
12091 12104     1    0.151   179912    0.151   179912
[ constraints ] ; from mdp
12092 12093     1    0.108    0.108
[ constraints ] ; from mdp
12092 12094     1    0.108    0.108
[ constraints ] ; from mdp
12092 12095     1    0.108    0.108
[ constraints ] ; from mdp
12096 12097     1    0.108    0.108
[ constraints ] ; from mdp
12096 12098     1    0.108    0.108
[ constraints ] ; from mdp
12096 12099     1    0.108    0.108
[ constraints ] ; from mdp
12100 12101     1    0.108    0.108
[ constraints ] ; from mdp
12100 12102     1    0.108    0.108
[ constraints ] ; from mdp
12100 12103     1    0.108    0.108
[ constraints ] ; from mdp
12104 12105     1    0.108    0.108
[ constraints ] ; from mdp
12104 12106     1    0.108    0.108
[ bonds ]
12104 12107     1    0.153   186188    0.153   186188
[ constraints ] ; from mdp
12107 12108     1   0.1111   0.1111
[ constraints ] ; from mdp
12107 12109     1   0.1111   0.1111
[ bonds ]
12107 12114     1    0.143   284512    0.143   284512
[ bonds ]
12110 12111     1    0.148   485344    0.148   485344
[ bonds ]
12110 12112     1    0.148   485344    0.148   485344
[ bonds ]
12110 12113     1     0.16   225936     0.16   225936
[ bonds ]
12110 12114     1     0.16   225936     0.16   225936
[ bonds ]
12113 12115     1    0.143   284512    0.143   284512
[ constraints ] ; from mdp
12115 12116     1   0.1111   0.1111
[ constraints ] ; from mdp
12115 12117     1   0.1111   0.1111
[ bonds ]
12115 12118     1   0.1538   186188   0.1538   186188
[ constraints ] ; from mdp
12118 12119     1   0.1111   0.1111
[ bonds ]
12118 12120     1    0.143   284512    0.143   284512
[ bonds ]
12118 12126     1   0.1538   186188   0.1538   186188
[ bonds ]
12120 12121     1   0.1334   125520   0.1334   125520
[ bonds ]
12121 12122     1    0.122   627600    0.122   627600
[ bonds ]
12121 12123     1   0.1522   167360   0.1522   167360
[ constraints ] ; from mdp
12123 12124     1   0.1111   0.1111
[ constraints ] ; from mdp
12123 12125     1   0.1111   0.1111
[ bonds ]
12123 12135     1    0.153   186188    0.153   186188
[ constraints ] ; from mdp
12126 12127     1   0.1111   0.1111
[ constraints ] ; from mdp
12126 12128     1   0.1111   0.1111
[ bonds ]
12126 12129     1    0.143   284512    0.143   284512
[ bonds ]
12129 12130     1   0.1334   125520   0.1334   125520
[ bonds ]
12130 12131     1    0.122   627600    0.122   627600
[ bonds ]
12130 12132     1   0.1522   167360   0.1522   167360
[ constraints ] ; from mdp
12132 12133     1   0.1111   0.1111
[ constraints ] ; from mdp
12132 12134     1   0.1111   0.1111
[ bonds ]
12132 12178     1    0.153   186188    0.153   186188
[ constraints ] ; from mdp
12135 12136     1   0.1111   0.1111
[ constraints ] ; from mdp
12135 12137     1   0.1111   0.1111
[ bonds ]
12135 12138     1    0.153   186188    0.153   186188
[ constraints ] ; from mdp
12138 12139     1   0.1111   0.1111
[ constraints ] ; from mdp
12138 12140     1   0.1111   0.1111
[ bonds ]
12138 12141     1    0.153   186188    0.153   186188
[ constraints ] ; from mdp
12141 12142     1   0.1111   0.1111
[ constraints ] ; from mdp
12141 12143     1   0.1111   0.1111
[ bonds ]
12141 12144     1    0.153   186188    0.153   186188
[ constraints ] ; from mdp
12144 12145     1   0.1111   0.1111
[ constraints ] ; from mdp
12144 12146     1   0.1111   0.1111
[ bonds ]
12144 12147     1    0.153   186188    0.153   186188
[ constraints ] ; from mdp
12147 12148     1   0.1111   0.1111
[ constraints ] ; from mdp
12147 12149     1   0.1111   0.1111
[ bonds ]
12147 12150     1    0.153   186188    0.153   186188
[ constraints ] ; from mdp
12150 12151     1   0.1111   0.1111
[ constraints ] ; from mdp
12150 12152     1   0.1111   0.1111
[ bonds ]
12150 12153     1    0.153   186188    0.153   186188
[ constraints ] ; from mdp
12153 12154     1   0.1111   0.1111
[ constraints ] ; from mdp
12153 12155     1   0.1111   0.1111
[ bonds ]
12153 12156     1    0.153   186188    0.153   186188
[ constraints ] ; from mdp
12156 12157     1   0.1111   0.1111
[ constraints ] ; from mdp
12156 12158     1   0.1111   0.1111
[ bonds ]
12156 12159     1    0.153   186188    0.153   186188
[ constraints ] ; from mdp
12159 12160     1   0.1111   0.1111
[ constraints ] ; from mdp
12159 12161     1   0.1111   0.1111
[ bonds ]
12159 12162     1    0.153   186188    0.153   186188
[ constraints ] ; from mdp
12162 12163     1   0.1111   0.1111
[ constraints ] ; from mdp
12162 12164     1   0.1111   0.1111
[ bonds ]
12162 12165     1    0.153   186188    0.153   186188
[ constraints ] ; from mdp
12165 12166     1   0.1111   0.1111
[ constraints ] ; from mdp
12165 12167     1   0.1111   0.1111
[ bonds ]
12165 12168     1    0.153   186188    0.153   186188
[ constraints ] ; from mdp
12168 12169     1   0.1111   0.1111
[ constraints ] ; from mdp
12168 12170     1   0.1111   0.1111
[ bonds ]
12168 12171     1    0.153   186188    0.153   186188
[ constraints ] ; from mdp
12171 12172     1   0.1111   0.1111
[ constraints ] ; from mdp
12171 12173     1   0.1111   0.1111
[ bonds ]
12171 12174     1   0.1528   186188   0.1528   186188
[ constraints ] ; from mdp
12174 12175     1   0.1111   0.1111
[ constraints ] ; from mdp
12174 12176     1   0.1111   0.1111
[ constraints ] ; from mdp
12174 12177     1   0.1111   0.1111
[ constraints ] ; from mdp
12178 12179     1   0.1111   0.1111
[ constraints ] ; from mdp
12178 12180     1   0.1111   0.1111
[ bonds ]
12178 12181     1    0.153   186188    0.153   186188
[ constraints ] ; from mdp
12181 12182     1   0.1111   0.1111
[ constraints ] ; from mdp
12181 12183     1   0.1111   0.1111
[ bonds ]
12181 12184     1    0.153   186188    0.153   186188
[ constraints ] ; from mdp
12184 12185     1   0.1111   0.1111
[ constraints ] ; from mdp
12184 12186     1   0.1111   0.1111
[ bonds ]
12184 12187     1    0.153   186188    0.153   186188
[ constraints ] ; from mdp
12187 12188     1   0.1111   0.1111
[ constraints ] ; from mdp
12187 12189     1   0.1111   0.1111
[ bonds ]
12187 12190     1    0.153   186188    0.153   186188
[ constraints ] ; from mdp
12190 12191     1   0.1111   0.1111
[ constraints ] ; from mdp
12190 12192     1   0.1111   0.1111
[ bonds ]
12190 12193     1    0.153   186188    0.153   186188
[ constraints ] ; from mdp
12193 12194     1   0.1111   0.1111
[ constraints ] ; from mdp
12193 12195     1   0.1111   0.1111
[ bonds ]
12193 12196     1    0.153   186188    0.153   186188
[ constraints ] ; from mdp
12196 12197     1   0.1111   0.1111
[ constraints ] ; from mdp
12196 12198     1   0.1111   0.1111
[ bonds ]
12196 12199     1    0.153   186188    0.153   186188
[ constraints ] ; from mdp
12199 12200     1   0.1111   0.1111
[ constraints ] ; from mdp
12199 12201     1   0.1111   0.1111
[ bonds ]
12199 12202     1    0.153   186188    0.153   186188
[ constraints ] ; from mdp
12202 12203     1   0.1111   0.1111
[ constraints ] ; from mdp
12202 12204     1   0.1111   0.1111
[ bonds ]
12202 12205     1    0.153   186188    0.153   186188
[ constraints ] ; from mdp
12205 12206     1   0.1111   0.1111
[ constraints ] ; from mdp
12205 12207     1   0.1111   0.1111
[ bonds ]
12205 12208     1    0.153   186188    0.153   186188
[ constraints ] ; from mdp
12208 12209     1   0.1111   0.1111
[ constraints ] ; from mdp
12208 12210     1   0.1111   0.1111
[ bonds ]
12208 12211     1    0.153   186188    0.153   186188
[ constraints ] ; from mdp
12211 12212     1   0.1111   0.1111
[ constraints ] ; from mdp
12211 12213     1   0.1111   0.1111
[ bonds ]
12211 12214     1    0.153   186188    0.153   186188
[ constraints ] ; from mdp
12214 12215     1   0.1111   0.1111
[ constraints ] ; from mdp
12214 12216     1   0.1111   0.1111
[ bonds ]
12214 12217     1   0.1528   186188   0.1528   186188
[ constraints ] ; from mdp
12217 12218     1   0.1111   0.1111
[ constraints ] ; from mdp
12217 12219     1   0.1111   0.1111
[ constraints ] ; from mdp
12217 12220     1   0.1111   0.1111
[ bonds ]
12221 12222     1    0.151   179912    0.151   179912
[ bonds ]
12221 12226     1    0.151   179912    0.151   179912
[ bonds ]
12221 12230     1    0.151   179912    0.151   179912
[ bonds ]
12221 12234     1    0.151   179912    0.151   179912
[ constraints ] ; from mdp
12222 12223     1    0.108    0.108
[ constraints ] ; from mdp
12222 12224     1    0.108    0.108
[ constraints ] ; from mdp
12222 12225     1    0.108    0.108
[ constraints ] ; from mdp
12226 12227     1    0.108    0.108
[ constraints ] ; from mdp
12226 12228     1    0.108    0.108
[ constraints ] ; from mdp
12226 12229     1    0.108    0.108
[ constraints ] ; from mdp
12230 12231     1    0.108    0.108
[ constraints ] ; from mdp
12230 12232     1    0.108    0.108
[ constraints ] ; from mdp
12230 12233     1    0.108    0.108
[ constraints ] ; from mdp
12234 12235     1    0.108    0.108
[ constraints ] ; from mdp
12234 12236     1    0.108    0.108
[ bonds ]
12234 12237     1    0.153   186188    0.153   186188
[ constraints ] ; from mdp
12237 12238     1   0.1111   0.1111
[ constraints ] ; from mdp
12237 12239     1   0.1111   0.1111
[ bonds ]
12237 12244     1    0.143   284512    0.143   284512
[ bonds ]
12240 12241     1    0.148   485344    0.148   485344
[ bonds ]
12240 12242     1    0.148   485344    0.148   485344
[ bonds ]
12240 12243     1     0.16   225936     0.16   225936
[ bonds ]
12240 12244     1     0.16   225936     0.16   225936
[ bonds ]
12243 12245     1    0.143   284512    0.143   284512
[ constraints ] ; from mdp
12245 12246     1   0.1111   0.1111
[ constraints ] ; from mdp
12245 12247     1   0.1111   0.1111
[ bonds ]
12245 12248     1   0.1538   186188   0.1538   186188
[ constraints ] ; from mdp
12248 12249     1   0.1111   0.1111
[ bonds ]
12248 12250     1    0.143   284512    0.143   284512
[ bonds ]
12248 12256     1   0.1538   186188   0.1538   186188
[ bonds ]
12250 12251     1   0.1334   125520   0.1334   125520
[ bonds ]
12251 12252     1    0.122   627600    0.122   627600
[ bonds ]
12251 12253     1   0.1522   167360   0.1522   167360
[ constraints ] ; from mdp
12253 12254     1   0.1111   0.1111
[ constraints ] ; from mdp
12253 12255     1   0.1111   0.1111
[ bonds ]
12253 12265     1    0.153   186188    0.153   186188
[ constraints ] ; from mdp
12256 12257     1   0.1111   0.1111
[ constraints ] ; from mdp
12256 12258     1   0.1111   0.1111
[ bonds ]
12256 12259     1    0.143   284512    0.143   284512
[ bonds ]
12259 12260     1   0.1334   125520   0.1334   125520
[ bonds ]
12260 12261     1    0.122   627600    0.122   627600
[ bonds ]
12260 12262     1   0.1522   167360   0.1522   167360
[ constraints ] ; from mdp
12262 12263     1   0.1111   0.1111
[ constraints ] ; from mdp
12262 12264     1   0.1111   0.1111
[ bonds ]
12262 12308     1    0.153   186188    0.153   186188
[ constraints ] ; from mdp
12265 12266     1   0.1111   0.1111
[ constraints ] ; from mdp
12265 12267     1   0.1111   0.1111
[ bonds ]
12265 12268     1    0.153   186188    0.153   186188
[ constraints ] ; from mdp
12268 12269     1   0.1111   0.1111
[ constraints ] ; from mdp
12268 12270     1   0.1111   0.1111
[ bonds ]
12268 12271     1    0.153   186188    0.153   186188
[ constraints ] ; from mdp
12271 12272     1   0.1111   0.1111
[ constraints ] ; from mdp
12271 12273     1   0.1111   0.1111
[ bonds ]
12271 12274     1    0.153   186188    0.153   186188
[ constraints ] ; from mdp
12274 12275     1   0.1111   0.1111
[ constraints ] ; from mdp
12274 12276     1   0.1111   0.1111
[ bonds ]
12274 12277     1    0.153   186188    0.153   186188
[ constraints ] ; from mdp
12277 12278     1   0.1111   0.1111
[ constraints ] ; from mdp
12277 12279     1   0.1111   0.1111
[ bonds ]
12277 12280     1    0.153   186188    0.153   186188
[ constraints ] ; from mdp
12280 12281     1   0.1111   0.1111
[ constraints ] ; from mdp
12280 12282     1   0.1111   0.1111
[ bonds ]
12280 12283     1    0.153   186188    0.153   186188
[ constraints ] ; from mdp
12283 12284     1   0.1111   0.1111
[ constraints ] ; from mdp
12283 12285     1   0.1111   0.1111
[ bonds ]
12283 12286     1    0.153   186188    0.153   186188
[ constraints ] ; from mdp
12286 12287     1   0.1111   0.1111
[ constraints ] ; from mdp
12286 12288     1   0.1111   0.1111
[ bonds ]
12286 12289     1    0.153   186188    0.153   186188
[ constraints ] ; from mdp
12289 12290     1   0.1111   0.1111
[ constraints ] ; from mdp
12289 12291     1   0.1111   0.1111
[ bonds ]
12289 12292     1    0.153   186188    0.153   186188
[ constraints ] ; from mdp
12292 12293     1   0.1111   0.1111
[ constraints ] ; from mdp
12292 12294     1   0.1111   0.1111
[ bonds ]
12292 12295     1    0.153   186188    0.153   186188
[ constraints ] ; from mdp
12295 12296     1   0.1111   0.1111
[ constraints ] ; from mdp
12295 12297     1   0.1111   0.1111
[ bonds ]
12295 12298     1    0.153   186188    0.153   186188
[ constraints ] ; from mdp
12298 12299     1   0.1111   0.1111
[ constraints ] ; from mdp
12298 12300     1   0.1111   0.1111
[ bonds ]
12298 12301     1    0.153   186188    0.153   186188
[ constraints ] ; from mdp
12301 12302     1   0.1111   0.1111
[ constraints ] ; from mdp
12301 12303     1   0.1111   0.1111
[ bonds ]
12301 12304     1   0.1528   186188   0.1528   186188
[ constraints ] ; from mdp
12304 12305     1   0.1111   0.1111
[ constraints ] ; from mdp
12304 12306     1   0.1111   0.1111
[ constraints ] ; from mdp
12304 12307     1   0.1111   0.1111
[ constraints ] ; from mdp
12308 12309     1   0.1111   0.1111
[ constraints ] ; from mdp
12308 12310     1   0.1111   0.1111
[ bonds ]
12308 12311     1    0.153   186188    0.153   186188
[ constraints ] ; from mdp
12311 12312     1   0.1111   0.1111
[ constraints ] ; from mdp
12311 12313     1   0.1111   0.1111
[ bonds ]
12311 12314     1    0.153   186188    0.153   186188
[ constraints ] ; from mdp
12314 12315     1   0.1111   0.1111
[ constraints ] ; from mdp
12314 12316     1   0.1111   0.1111
[ bonds ]
12314 12317     1    0.153   186188    0.153   186188
[ constraints ] ; from mdp
12317 12318     1   0.1111   0.1111
[ constraints ] ; from mdp
12317 12319     1   0.1111   0.1111
[ bonds ]
12317 12320     1    0.153   186188    0.153   186188
[ constraints ] ; from mdp
12320 12321     1   0.1111   0.1111
[ constraints ] ; from mdp
12320 12322     1   0.1111   0.1111
[ bonds ]
12320 12323     1    0.153   186188    0.153   186188
[ constraints ] ; from mdp
12323 12324     1   0.1111   0.1111
[ constraints ] ; from mdp
12323 12325     1   0.1111   0.1111
[ bonds ]
12323 12326     1    0.153   186188    0.153   186188
[ constraints ] ; from mdp
12326 12327     1   0.1111   0.1111
[ constraints ] ; from mdp
12326 12328     1   0.1111   0.1111
[ bonds ]
12326 12329     1    0.153   186188    0.153   186188
[ constraints ] ; from mdp
12329 12330     1   0.1111   0.1111
[ constraints ] ; from mdp
12329 12331     1   0.1111   0.1111
[ bonds ]
12329 12332     1    0.153   186188    0.153   186188
[ constraints ] ; from mdp
12332 12333     1   0.1111   0.1111
[ constraints ] ; from mdp
12332 12334     1   0.1111   0.1111
[ bonds ]
12332 12335     1    0.153   186188    0.153   186188
[ constraints ] ; from mdp
12335 12336     1   0.1111   0.1111
[ constraints ] ; from mdp
12335 12337     1   0.1111   0.1111
[ bonds ]
12335 12338     1    0.153   186188    0.153   186188
[ constraints ] ; from mdp
12338 12339     1   0.1111   0.1111
[ constraints ] ; from mdp
12338 12340     1   0.1111   0.1111
[ bonds ]
12338 12341     1    0.153   186188    0.153   186188
[ constraints ] ; from mdp
12341 12342     1   0.1111   0.1111
[ constraints ] ; from mdp
12341 12343     1   0.1111   0.1111
[ bonds ]
12341 12344     1    0.153   186188    0.153   186188
[ constraints ] ; from mdp
12344 12345     1   0.1111   0.1111
[ constraints ] ; from mdp
12344 12346     1   0.1111   0.1111
[ bonds ]
12344 12347     1   0.1528   186188   0.1528   186188
[ constraints ] ; from mdp
12347 12348     1   0.1111   0.1111
[ constraints ] ; from mdp
12347 12349     1   0.1111   0.1111
[ constraints ] ; from mdp
12347 12350     1   0.1111   0.1111
[ bonds ]
12351 12352     1    0.151   179912    0.151   179912
[ bonds ]
12351 12356     1    0.151   179912    0.151   179912
[ bonds ]
12351 12360     1    0.151   179912    0.151   179912
[ bonds ]
12351 12364     1    0.151   179912    0.151   179912
[ constraints ] ; from mdp
12352 12353     1    0.108    0.108
[ constraints ] ; from mdp
12352 12354     1    0.108    0.108
[ constraints ] ; from mdp
12352 12355     1    0.108    0.108
[ constraints ] ; from mdp
12356 12357     1    0.108    0.108
[ constraints ] ; from mdp
12356 12358     1    0.108    0.108
[ constraints ] ; from mdp
12356 12359     1    0.108    0.108
[ constraints ] ; from mdp
12360 12361     1    0.108    0.108
[ constraints ] ; from mdp
12360 12362     1    0.108    0.108
[ constraints ] ; from mdp
12360 12363     1    0.108    0.108
[ constraints ] ; from mdp
12364 12365     1    0.108    0.108
[ constraints ] ; from mdp
12364 12366     1    0.108    0.108
[ bonds ]
12364 12367     1    0.153   186188    0.153   186188
[ constraints ] ; from mdp
12367 12368     1   0.1111   0.1111
[ constraints ] ; from mdp
12367 12369     1   0.1111   0.1111
[ bonds ]
12367 12374     1    0.143   284512    0.143   284512
[ bonds ]
12370 12371     1    0.148   485344    0.148   485344
[ bonds ]
12370 12372     1    0.148   485344    0.148   485344
[ bonds ]
12370 12373     1     0.16   225936     0.16   225936
[ bonds ]
12370 12374     1     0.16   225936     0.16   225936
[ bonds ]
12373 12375     1    0.143   284512    0.143   284512
[ constraints ] ; from mdp
12375 12376     1   0.1111   0.1111
[ constraints ] ; from mdp
12375 12377     1   0.1111   0.1111
[ bonds ]
12375 12378     1   0.1538   186188   0.1538   186188
[ constraints ] ; from mdp
12378 12379     1   0.1111   0.1111
[ bonds ]
12378 12380     1    0.143   284512    0.143   284512
[ bonds ]
12378 12386     1   0.1538   186188   0.1538   186188
[ bonds ]
12380 12381     1   0.1334   125520   0.1334   125520
[ bonds ]
12381 12382     1    0.122   627600    0.122   627600
[ bonds ]
12381 12383     1   0.1522   167360   0.1522   167360
[ constraints ] ; from mdp
12383 12384     1   0.1111   0.1111
[ constraints ] ; from mdp
12383 12385     1   0.1111   0.1111
[ bonds ]
12383 12395     1    0.153   186188    0.153   186188
[ constraints ] ; from mdp
12386 12387     1   0.1111   0.1111
[ constraints ] ; from mdp
12386 12388     1   0.1111   0.1111
[ bonds ]
12386 12389     1    0.143   284512    0.143   284512
[ bonds ]
12389 12390     1   0.1334   125520   0.1334   125520
[ bonds ]
12390 12391     1    0.122   627600    0.122   627600
[ bonds ]
12390 12392     1   0.1522   167360   0.1522   167360
[ constraints ] ; from mdp
12392 12393     1   0.1111   0.1111
[ constraints ] ; from mdp
12392 12394     1   0.1111   0.1111
[ bonds ]
12392 12438     1    0.153   186188    0.153   186188
[ constraints ] ; from mdp
12395 12396     1   0.1111   0.1111
[ constraints ] ; from mdp
12395 12397     1   0.1111   0.1111
[ bonds ]
12395 12398     1    0.153   186188    0.153   186188
[ constraints ] ; from mdp
12398 12399     1   0.1111   0.1111
[ constraints ] ; from mdp
12398 12400     1   0.1111   0.1111
[ bonds ]
12398 12401     1    0.153   186188    0.153   186188
[ constraints ] ; from mdp
12401 12402     1   0.1111   0.1111
[ constraints ] ; from mdp
12401 12403     1   0.1111   0.1111
[ bonds ]
12401 12404     1    0.153   186188    0.153   186188
[ constraints ] ; from mdp
12404 12405     1   0.1111   0.1111
[ constraints ] ; from mdp
12404 12406     1   0.1111   0.1111
[ bonds ]
12404 12407     1    0.153   186188    0.153   186188
[ constraints ] ; from mdp
12407 12408     1   0.1111   0.1111
[ constraints ] ; from mdp
12407 12409     1   0.1111   0.1111
[ bonds ]
12407 12410     1    0.153   186188    0.153   186188
[ constraints ] ; from mdp
12410 12411     1   0.1111   0.1111
[ constraints ] ; from mdp
12410 12412     1   0.1111   0.1111
[ bonds ]
12410 12413     1    0.153   186188    0.153   186188
[ constraints ] ; from mdp
12413 12414     1   0.1111   0.1111
[ constraints ] ; from mdp
12413 12415     1   0.1111   0.1111
[ bonds ]
12413 12416     1    0.153   186188    0.153   186188
[ constraints ] ; from mdp
12416 12417     1   0.1111   0.1111
[ constraints ] ; from mdp
12416 12418     1   0.1111   0.1111
[ bonds ]
12416 12419     1    0.153   186188    0.153   186188
[ constraints ] ; from mdp
12419 12420     1   0.1111   0.1111
[ constraints ] ; from mdp
12419 12421     1   0.1111   0.1111
[ bonds ]
12419 12422     1    0.153   186188    0.153   186188
[ constraints ] ; from mdp
12422 12423     1   0.1111   0.1111
[ constraints ] ; from mdp
12422 12424     1   0.1111   0.1111
[ bonds ]
12422 12425     1    0.153   186188    0.153   186188
[ constraints ] ; from mdp
12425 12426     1   0.1111   0.1111
[ constraints ] ; from mdp
12425 12427     1   0.1111   0.1111
[ bonds ]
12425 12428     1    0.153   186188    0.153   186188
[ constraints ] ; from mdp
12428 12429     1   0.1111   0.1111
[ constraints ] ; from mdp
12428 12430     1   0.1111   0.1111
[ bonds ]
12428 12431     1    0.153   186188    0.153   186188
[ constraints ] ; from mdp
12431 12432     1   0.1111   0.1111
[ constraints ] ; from mdp
12431 12433     1   0.1111   0.1111
[ bonds ]
12431 12434     1   0.1528   186188   0.1528   186188
[ constraints ] ; from mdp
12434 12435     1   0.1111   0.1111
[ constraints ] ; from mdp
12434 12436     1   0.1111   0.1111
[ constraints ] ; from mdp
12434 12437     1   0.1111   0.1111
[ constraints ] ; from mdp
12438 12439     1   0.1111   0.1111
[ constraints ] ; from mdp
12438 12440     1   0.1111   0.1111
[ bonds ]
12438 12441     1    0.153   186188    0.153   186188
[ constraints ] ; from mdp
12441 12442     1   0.1111   0.1111
[ constraints ] ; from mdp
12441 12443     1   0.1111   0.1111
[ bonds ]
12441 12444     1    0.153   186188    0.153   186188
[ constraints ] ; from mdp
12444 12445     1   0.1111   0.1111
[ constraints ] ; from mdp
12444 12446     1   0.1111   0.1111
[ bonds ]
12444 12447     1    0.153   186188    0.153   186188
[ constraints ] ; from mdp
12447 12448     1   0.1111   0.1111
[ constraints ] ; from mdp
12447 12449     1   0.1111   0.1111
[ bonds ]
12447 12450     1    0.153   186188    0.153   186188
[ constraints ] ; from mdp
12450 12451     1   0.1111   0.1111
[ constraints ] ; from mdp
12450 12452     1   0.1111   0.1111
[ bonds ]
12450 12453     1    0.153   186188    0.153   186188
[ constraints ] ; from mdp
12453 12454     1   0.1111   0.1111
[ constraints ] ; from mdp
12453 12455     1   0.1111   0.1111
[ bonds ]
12453 12456     1    0.153   186188    0.153   186188
[ constraints ] ; from mdp
12456 12457     1   0.1111   0.1111
[ constraints ] ; from mdp
12456 12458     1   0.1111   0.1111
[ bonds ]
12456 12459     1    0.153   186188    0.153   186188
[ constraints ] ; from mdp
12459 12460     1   0.1111   0.1111
[ constraints ] ; from mdp
12459 12461     1   0.1111   0.1111
[ bonds ]
12459 12462     1    0.153   186188    0.153   186188
[ constraints ] ; from mdp
12462 12463     1   0.1111   0.1111
[ constraints ] ; from mdp
12462 12464     1   0.1111   0.1111
[ bonds ]
12462 12465     1    0.153   186188    0.153   186188
[ constraints ] ; from mdp
12465 12466     1   0.1111   0.1111
[ constraints ] ; from mdp
12465 12467     1   0.1111   0.1111
[ bonds ]
12465 12468     1    0.153   186188    0.153   186188
[ constraints ] ; from mdp
12468 12469     1   0.1111   0.1111
[ constraints ] ; from mdp
12468 12470     1   0.1111   0.1111
[ bonds ]
12468 12471     1    0.153   186188    0.153   186188
[ constraints ] ; from mdp
12471 12472     1   0.1111   0.1111
[ constraints ] ; from mdp
12471 12473     1   0.1111   0.1111
[ bonds ]
12471 12474     1    0.153   186188    0.153   186188
[ constraints ] ; from mdp
12474 12475     1   0.1111   0.1111
[ constraints ] ; from mdp
12474 12476     1   0.1111   0.1111
[ bonds ]
12474 12477     1   0.1528   186188   0.1528   186188
[ constraints ] ; from mdp
12477 12478     1   0.1111   0.1111
[ constraints ] ; from mdp
12477 12479     1   0.1111   0.1111
[ constraints ] ; from mdp
12477 12480     1   0.1111   0.1111
[ bonds ]
12481 12482     1    0.151   179912    0.151   179912
[ bonds ]
12481 12486     1    0.151   179912    0.151   179912
[ bonds ]
12481 12490     1    0.151   179912    0.151   179912
[ bonds ]
12481 12494     1    0.151   179912    0.151   179912
[ constraints ] ; from mdp
12482 12483     1    0.108    0.108
[ constraints ] ; from mdp
12482 12484     1    0.108    0.108
[ constraints ] ; from mdp
12482 12485     1    0.108    0.108
[ constraints ] ; from mdp
12486 12487     1    0.108    0.108
[ constraints ] ; from mdp
12486 12488     1    0.108    0.108
[ constraints ] ; from mdp
12486 12489     1    0.108    0.108
[ constraints ] ; from mdp
12490 12491     1    0.108    0.108
[ constraints ] ; from mdp
12490 12492     1    0.108    0.108
[ constraints ] ; from mdp
12490 12493     1    0.108    0.108
[ constraints ] ; from mdp
12494 12495     1    0.108    0.108
[ constraints ] ; from mdp
12494 12496     1    0.108    0.108
[ bonds ]
12494 12497     1    0.153   186188    0.153   186188
[ constraints ] ; from mdp
12497 12498     1   0.1111   0.1111
[ constraints ] ; from mdp
12497 12499     1   0.1111   0.1111
[ bonds ]
12497 12504     1    0.143   284512    0.143   284512
[ bonds ]
12500 12501     1    0.148   485344    0.148   485344
[ bonds ]
12500 12502     1    0.148   485344    0.148   485344
[ bonds ]
12500 12503     1     0.16   225936     0.16   225936
[ bonds ]
12500 12504     1     0.16   225936     0.16   225936
[ bonds ]
12503 12505     1    0.143   284512    0.143   284512
[ constraints ] ; from mdp
12505 12506     1   0.1111   0.1111
[ constraints ] ; from mdp
12505 12507     1   0.1111   0.1111
[ bonds ]
12505 12508     1   0.1538   186188   0.1538   186188
[ constraints ] ; from mdp
12508 12509     1   0.1111   0.1111
[ bonds ]
12508 12510     1    0.143   284512    0.143   284512
[ bonds ]
12508 12516     1   0.1538   186188   0.1538   186188
[ bonds ]
12510 12511     1   0.1334   125520   0.1334   125520
[ bonds ]
12511 12512     1    0.122   627600    0.122   627600
[ bonds ]
12511 12513     1   0.1522   167360   0.1522   167360
[ constraints ] ; from mdp
12513 12514     1   0.1111   0.1111
[ constraints ] ; from mdp
12513 12515     1   0.1111   0.1111
[ bonds ]
12513 12525     1    0.153   186188    0.153   186188
[ constraints ] ; from mdp
12516 12517     1   0.1111   0.1111
[ constraints ] ; from mdp
12516 12518     1   0.1111   0.1111
[ bonds ]
12516 12519     1    0.143   284512    0.143   284512
[ bonds ]
12519 12520     1   0.1334   125520   0.1334   125520
[ bonds ]
12520 12521     1    0.122   627600    0.122   627600
[ bonds ]
12520 12522     1   0.1522   167360   0.1522   167360
[ constraints ] ; from mdp
12522 12523     1   0.1111   0.1111
[ constraints ] ; from mdp
12522 12524     1   0.1111   0.1111
[ bonds ]
12522 12568     1    0.153   186188    0.153   186188
[ constraints ] ; from mdp
12525 12526     1   0.1111   0.1111
[ constraints ] ; from mdp
12525 12527     1   0.1111   0.1111
[ bonds ]
12525 12528     1    0.153   186188    0.153   186188
[ constraints ] ; from mdp
12528 12529     1   0.1111   0.1111
[ constraints ] ; from mdp
12528 12530     1   0.1111   0.1111
[ bonds ]
12528 12531     1    0.153   186188    0.153   186188
[ constraints ] ; from mdp
12531 12532     1   0.1111   0.1111
[ constraints ] ; from mdp
12531 12533     1   0.1111   0.1111
[ bonds ]
12531 12534     1    0.153   186188    0.153   186188
[ constraints ] ; from mdp
12534 12535     1   0.1111   0.1111
[ constraints ] ; from mdp
12534 12536     1   0.1111   0.1111
[ bonds ]
12534 12537     1    0.153   186188    0.153   186188
[ constraints ] ; from mdp
12537 12538     1   0.1111   0.1111
[ constraints ] ; from mdp
12537 12539     1   0.1111   0.1111
[ bonds ]
12537 12540     1    0.153   186188    0.153   186188
[ constraints ] ; from mdp
12540 12541     1   0.1111   0.1111
[ constraints ] ; from mdp
12540 12542     1   0.1111   0.1111
[ bonds ]
12540 12543     1    0.153   186188    0.153   186188
[ constraints ] ; from mdp
12543 12544     1   0.1111   0.1111
[ constraints ] ; from mdp
12543 12545     1   0.1111   0.1111
[ bonds ]
12543 12546     1    0.153   186188    0.153   186188
[ constraints ] ; from mdp
12546 12547     1   0.1111   0.1111
[ constraints ] ; from mdp
12546 12548     1   0.1111   0.1111
[ bonds ]
12546 12549     1    0.153   186188    0.153   186188
[ constraints ] ; from mdp
12549 12550     1   0.1111   0.1111
[ constraints ] ; from mdp
12549 12551     1   0.1111   0.1111
[ bonds ]
12549 12552     1    0.153   186188    0.153   186188
[ constraints ] ; from mdp
12552 12553     1   0.1111   0.1111
[ constraints ] ; from mdp
12552 12554     1   0.1111   0.1111
[ bonds ]
12552 12555     1    0.153   186188    0.153   186188
[ constraints ] ; from mdp
12555 12556     1   0.1111   0.1111
[ constraints ] ; from mdp
12555 12557     1   0.1111   0.1111
[ bonds ]
12555 12558     1    0.153   186188    0.153   186188
[ constraints ] ; from mdp
12558 12559     1   0.1111   0.1111
[ constraints ] ; from mdp
12558 12560     1   0.1111   0.1111
[ bonds ]
12558 12561     1    0.153   186188    0.153   186188
[ constraints ] ; from mdp
12561 12562     1   0.1111   0.1111
[ constraints ] ; from mdp
12561 12563     1   0.1111   0.1111
[ bonds ]
12561 12564     1   0.1528   186188   0.1528   186188
[ constraints ] ; from mdp
12564 12565     1   0.1111   0.1111
[ constraints ] ; from mdp
12564 12566     1   0.1111   0.1111
[ constraints ] ; from mdp
12564 12567     1   0.1111   0.1111
[ constraints ] ; from mdp
12568 12569     1   0.1111   0.1111
[ constraints ] ; from mdp
12568 12570     1   0.1111   0.1111
[ bonds ]
12568 12571     1    0.153   186188    0.153   186188
[ constraints ] ; from mdp
12571 12572     1   0.1111   0.1111
[ constraints ] ; from mdp
12571 12573     1   0.1111   0.1111
[ bonds ]
12571 12574     1    0.153   186188    0.153   186188
[ constraints ] ; from mdp
12574 12575     1   0.1111   0.1111
[ constraints ] ; from mdp
12574 12576     1   0.1111   0.1111
[ bonds ]
12574 12577     1    0.153   186188    0.153   186188
[ constraints ] ; from mdp
12577 12578     1   0.1111   0.1111
[ constraints ] ; from mdp
12577 12579     1   0.1111   0.1111
[ bonds ]
12577 12580     1    0.153   186188    0.153   186188
[ constraints ] ; from mdp
12580 12581     1   0.1111   0.1111
[ constraints ] ; from mdp
12580 12582     1   0.1111   0.1111
[ bonds ]
12580 12583     1    0.153   186188    0.153   186188
[ constraints ] ; from mdp
12583 12584     1   0.1111   0.1111
[ constraints ] ; from mdp
12583 12585     1   0.1111   0.1111
[ bonds ]
12583 12586     1    0.153   186188    0.153   186188
[ constraints ] ; from mdp
12586 12587     1   0.1111   0.1111
[ constraints ] ; from mdp
12586 12588     1   0.1111   0.1111
[ bonds ]
12586 12589     1    0.153   186188    0.153   186188
[ constraints ] ; from mdp
12589 12590     1   0.1111   0.1111
[ constraints ] ; from mdp
12589 12591     1   0.1111   0.1111
[ bonds ]
12589 12592     1    0.153   186188    0.153   186188
[ constraints ] ; from mdp
12592 12593     1   0.1111   0.1111
[ constraints ] ; from mdp
12592 12594     1   0.1111   0.1111
[ bonds ]
12592 12595     1    0.153   186188    0.153   186188
[ constraints ] ; from mdp
12595 12596     1   0.1111   0.1111
[ constraints ] ; from mdp
12595 12597     1   0.1111   0.1111
[ bonds ]
12595 12598     1    0.153   186188    0.153   186188
[ constraints ] ; from mdp
12598 12599     1   0.1111   0.1111
[ constraints ] ; from mdp
12598 12600     1   0.1111   0.1111
[ bonds ]
12598 12601     1    0.153   186188    0.153   186188
[ constraints ] ; from mdp
12601 12602     1   0.1111   0.1111
[ constraints ] ; from mdp
12601 12603     1   0.1111   0.1111
[ bonds ]
12601 12604     1    0.153   186188    0.153   186188
[ constraints ] ; from mdp
12604 12605     1   0.1111   0.1111
[ constraints ] ; from mdp
12604 12606     1   0.1111   0.1111
[ bonds ]
12604 12607     1   0.1528   186188   0.1528   186188
[ constraints ] ; from mdp
12607 12608     1   0.1111   0.1111
[ constraints ] ; from mdp
12607 12609     1   0.1111   0.1111
[ constraints ] ; from mdp
12607 12610     1   0.1111   0.1111
[ bonds ]
12611 12612     1    0.151   179912    0.151   179912
[ bonds ]
12611 12616     1    0.151   179912    0.151   179912
[ bonds ]
12611 12620     1    0.151   179912    0.151   179912
[ bonds ]
12611 12624     1    0.151   179912    0.151   179912
[ constraints ] ; from mdp
12612 12613     1    0.108    0.108
[ constraints ] ; from mdp
12612 12614     1    0.108    0.108
[ constraints ] ; from mdp
12612 12615     1    0.108    0.108
[ constraints ] ; from mdp
12616 12617     1    0.108    0.108
[ constraints ] ; from mdp
12616 12618     1    0.108    0.108
[ constraints ] ; from mdp
12616 12619     1    0.108    0.108
[ constraints ] ; from mdp
12620 12621     1    0.108    0.108
[ constraints ] ; from mdp
12620 12622     1    0.108    0.108
[ constraints ] ; from mdp
12620 12623     1    0.108    0.108
[ constraints ] ; from mdp
12624 12625     1    0.108    0.108
[ constraints ] ; from mdp
12624 12626     1    0.108    0.108
[ bonds ]
12624 12627     1    0.153   186188    0.153   186188
[ constraints ] ; from mdp
12627 12628     1   0.1111   0.1111
[ constraints ] ; from mdp
12627 12629     1   0.1111   0.1111
[ bonds ]
12627 12634     1    0.143   284512    0.143   284512
[ bonds ]
12630 12631     1    0.148   485344    0.148   485344
[ bonds ]
12630 12632     1    0.148   485344    0.148   485344
[ bonds ]
12630 12633     1     0.16   225936     0.16   225936
[ bonds ]
12630 12634     1     0.16   225936     0.16   225936
[ bonds ]
12633 12635     1    0.143   284512    0.143   284512
[ constraints ] ; from mdp
12635 12636     1   0.1111   0.1111
[ constraints ] ; from mdp
12635 12637     1   0.1111   0.1111
[ bonds ]
12635 12638     1   0.1538   186188   0.1538   186188
[ constraints ] ; from mdp
12638 12639     1   0.1111   0.1111
[ bonds ]
12638 12640     1    0.143   284512    0.143   284512
[ bonds ]
12638 12646     1   0.1538   186188   0.1538   186188
[ bonds ]
12640 12641     1   0.1334   125520   0.1334   125520
[ bonds ]
12641 12642     1    0.122   627600    0.122   627600
[ bonds ]
12641 12643     1   0.1522   167360   0.1522   167360
[ constraints ] ; from mdp
12643 12644     1   0.1111   0.1111
[ constraints ] ; from mdp
12643 12645     1   0.1111   0.1111
[ bonds ]
12643 12655     1    0.153   186188    0.153   186188
[ constraints ] ; from mdp
12646 12647     1   0.1111   0.1111
[ constraints ] ; from mdp
12646 12648     1   0.1111   0.1111
[ bonds ]
12646 12649     1    0.143   284512    0.143   284512
[ bonds ]
12649 12650     1   0.1334   125520   0.1334   125520
[ bonds ]
12650 12651     1    0.122   627600    0.122   627600
[ bonds ]
12650 12652     1   0.1522   167360   0.1522   167360
[ constraints ] ; from mdp
12652 12653     1   0.1111   0.1111
[ constraints ] ; from mdp
12652 12654     1   0.1111   0.1111
[ bonds ]
12652 12698     1    0.153   186188    0.153   186188
[ constraints ] ; from mdp
12655 12656     1   0.1111   0.1111
[ constraints ] ; from mdp
12655 12657     1   0.1111   0.1111
[ bonds ]
12655 12658     1    0.153   186188    0.153   186188
[ constraints ] ; from mdp
12658 12659     1   0.1111   0.1111
[ constraints ] ; from mdp
12658 12660     1   0.1111   0.1111
[ bonds ]
12658 12661     1    0.153   186188    0.153   186188
[ constraints ] ; from mdp
12661 12662     1   0.1111   0.1111
[ constraints ] ; from mdp
12661 12663     1   0.1111   0.1111
[ bonds ]
12661 12664     1    0.153   186188    0.153   186188
[ constraints ] ; from mdp
12664 12665     1   0.1111   0.1111
[ constraints ] ; from mdp
12664 12666     1   0.1111   0.1111
[ bonds ]
12664 12667     1    0.153   186188    0.153   186188
[ constraints ] ; from mdp
12667 12668     1   0.1111   0.1111
[ constraints ] ; from mdp
12667 12669     1   0.1111   0.1111
[ bonds ]
12667 12670     1    0.153   186188    0.153   186188
[ constraints ] ; from mdp
12670 12671     1   0.1111   0.1111
[ constraints ] ; from mdp
12670 12672     1   0.1111   0.1111
[ bonds ]
12670 12673     1    0.153   186188    0.153   186188
[ constraints ] ; from mdp
12673 12674     1   0.1111   0.1111
[ constraints ] ; from mdp
12673 12675     1   0.1111   0.1111
[ bonds ]
12673 12676     1    0.153   186188    0.153   186188
[ constraints ] ; from mdp
12676 12677     1   0.1111   0.1111
[ constraints ] ; from mdp
12676 12678     1   0.1111   0.1111
[ bonds ]
12676 12679     1    0.153   186188    0.153   186188
[ constraints ] ; from mdp
12679 12680     1   0.1111   0.1111
[ constraints ] ; from mdp
12679 12681     1   0.1111   0.1111
[ bonds ]
12679 12682     1    0.153   186188    0.153   186188
[ constraints ] ; from mdp
12682 12683     1   0.1111   0.1111
[ constraints ] ; from mdp
12682 12684     1   0.1111   0.1111
[ bonds ]
12682 12685     1    0.153   186188    0.153   186188
[ constraints ] ; from mdp
12685 12686     1   0.1111   0.1111
[ constraints ] ; from mdp
12685 12687     1   0.1111   0.1111
[ bonds ]
12685 12688     1    0.153   186188    0.153   186188
[ constraints ] ; from mdp
12688 12689     1   0.1111   0.1111
[ constraints ] ; from mdp
12688 12690     1   0.1111   0.1111
[ bonds ]
12688 12691     1    0.153   186188    0.153   186188
[ constraints ] ; from mdp
12691 12692     1   0.1111   0.1111
[ constraints ] ; from mdp
12691 12693     1   0.1111   0.1111
[ bonds ]
12691 12694     1   0.1528   186188   0.1528   186188
[ constraints ] ; from mdp
12694 12695     1   0.1111   0.1111
[ constraints ] ; from mdp
12694 12696     1   0.1111   0.1111
[ constraints ] ; from mdp
12694 12697     1   0.1111   0.1111
[ constraints ] ; from mdp
12698 12699     1   0.1111   0.1111
[ constraints ] ; from mdp
12698 12700     1   0.1111   0.1111
[ bonds ]
12698 12701     1    0.153   186188    0.153   186188
[ constraints ] ; from mdp
12701 12702     1   0.1111   0.1111
[ constraints ] ; from mdp
12701 12703     1   0.1111   0.1111
[ bonds ]
12701 12704     1    0.153   186188    0.153   186188
[ constraints ] ; from mdp
12704 12705     1   0.1111   0.1111
[ constraints ] ; from mdp
12704 12706     1   0.1111   0.1111
[ bonds ]
12704 12707     1    0.153   186188    0.153   186188
[ constraints ] ; from mdp
12707 12708     1   0.1111   0.1111
[ constraints ] ; from mdp
12707 12709     1   0.1111   0.1111
[ bonds ]
12707 12710     1    0.153   186188    0.153   186188
[ constraints ] ; from mdp
12710 12711     1   0.1111   0.1111
[ constraints ] ; from mdp
12710 12712     1   0.1111   0.1111
[ bonds ]
12710 12713     1    0.153   186188    0.153   186188
[ constraints ] ; from mdp
12713 12714     1   0.1111   0.1111
[ constraints ] ; from mdp
12713 12715     1   0.1111   0.1111
[ bonds ]
12713 12716     1    0.153   186188    0.153   186188
[ constraints ] ; from mdp
12716 12717     1   0.1111   0.1111
[ constraints ] ; from mdp
12716 12718     1   0.1111   0.1111
[ bonds ]
12716 12719     1    0.153   186188    0.153   186188
[ constraints ] ; from mdp
12719 12720     1   0.1111   0.1111
[ constraints ] ; from mdp
12719 12721     1   0.1111   0.1111
[ bonds ]
12719 12722     1    0.153   186188    0.153   186188
[ constraints ] ; from mdp
12722 12723     1   0.1111   0.1111
[ constraints ] ; from mdp
12722 12724     1   0.1111   0.1111
[ bonds ]
12722 12725     1    0.153   186188    0.153   186188
[ constraints ] ; from mdp
12725 12726     1   0.1111   0.1111
[ constraints ] ; from mdp
12725 12727     1   0.1111   0.1111
[ bonds ]
12725 12728     1    0.153   186188    0.153   186188
[ constraints ] ; from mdp
12728 12729     1   0.1111   0.1111
[ constraints ] ; from mdp
12728 12730     1   0.1111   0.1111
[ bonds ]
12728 12731     1    0.153   186188    0.153   186188
[ constraints ] ; from mdp
12731 12732     1   0.1111   0.1111
[ constraints ] ; from mdp
12731 12733     1   0.1111   0.1111
[ bonds ]
12731 12734     1    0.153   186188    0.153   186188
[ constraints ] ; from mdp
12734 12735     1   0.1111   0.1111
[ constraints ] ; from mdp
12734 12736     1   0.1111   0.1111
[ bonds ]
12734 12737     1   0.1528   186188   0.1528   186188
[ constraints ] ; from mdp
12737 12738     1   0.1111   0.1111
[ constraints ] ; from mdp
12737 12739     1   0.1111   0.1111
[ constraints ] ; from mdp
12737 12740     1   0.1111   0.1111
[ bonds ]
12741 12742     1    0.151   179912    0.151   179912
[ bonds ]
12741 12746     1    0.151   179912    0.151   179912
[ bonds ]
12741 12750     1    0.151   179912    0.151   179912
[ bonds ]
12741 12754     1    0.151   179912    0.151   179912
[ constraints ] ; from mdp
12742 12743     1    0.108    0.108
[ constraints ] ; from mdp
12742 12744     1    0.108    0.108
[ constraints ] ; from mdp
12742 12745     1    0.108    0.108
[ constraints ] ; from mdp
12746 12747     1    0.108    0.108
[ constraints ] ; from mdp
12746 12748     1    0.108    0.108
[ constraints ] ; from mdp
12746 12749     1    0.108    0.108
[ constraints ] ; from mdp
12750 12751     1    0.108    0.108
[ constraints ] ; from mdp
12750 12752     1    0.108    0.108
[ constraints ] ; from mdp
12750 12753     1    0.108    0.108
[ constraints ] ; from mdp
12754 12755     1    0.108    0.108
[ constraints ] ; from mdp
12754 12756     1    0.108    0.108
[ bonds ]
12754 12757     1    0.153   186188    0.153   186188
[ constraints ] ; from mdp
12757 12758     1   0.1111   0.1111
[ constraints ] ; from mdp
12757 12759     1   0.1111   0.1111
[ bonds ]
12757 12764     1    0.143   284512    0.143   284512
[ bonds ]
12760 12761     1    0.148   485344    0.148   485344
[ bonds ]
12760 12762     1    0.148   485344    0.148   485344
[ bonds ]
12760 12763     1     0.16   225936     0.16   225936
[ bonds ]
12760 12764     1     0.16   225936     0.16   225936
[ bonds ]
12763 12765     1    0.143   284512    0.143   284512
[ constraints ] ; from mdp
12765 12766     1   0.1111   0.1111
[ constraints ] ; from mdp
12765 12767     1   0.1111   0.1111
[ bonds ]
12765 12768     1   0.1538   186188   0.1538   186188
[ constraints ] ; from mdp
12768 12769     1   0.1111   0.1111
[ bonds ]
12768 12770     1    0.143   284512    0.143   284512
[ bonds ]
12768 12776     1   0.1538   186188   0.1538   186188
[ bonds ]
12770 12771     1   0.1334   125520   0.1334   125520
[ bonds ]
12771 12772     1    0.122   627600    0.122   627600
[ bonds ]
12771 12773     1   0.1522   167360   0.1522   167360
[ constraints ] ; from mdp
12773 12774     1   0.1111   0.1111
[ constraints ] ; from mdp
12773 12775     1   0.1111   0.1111
[ bonds ]
12773 12785     1    0.153   186188    0.153   186188
[ constraints ] ; from mdp
12776 12777     1   0.1111   0.1111
[ constraints ] ; from mdp
12776 12778     1   0.1111   0.1111
[ bonds ]
12776 12779     1    0.143   284512    0.143   284512
[ bonds ]
12779 12780     1   0.1334   125520   0.1334   125520
[ bonds ]
12780 12781     1    0.122   627600    0.122   627600
[ bonds ]
12780 12782     1   0.1522   167360   0.1522   167360
[ constraints ] ; from mdp
12782 12783     1   0.1111   0.1111
[ constraints ] ; from mdp
12782 12784     1   0.1111   0.1111
[ bonds ]
12782 12828     1    0.153   186188    0.153   186188
[ constraints ] ; from mdp
12785 12786     1   0.1111   0.1111
[ constraints ] ; from mdp
12785 12787     1   0.1111   0.1111
[ bonds ]
12785 12788     1    0.153   186188    0.153   186188
[ constraints ] ; from mdp
12788 12789     1   0.1111   0.1111
[ constraints ] ; from mdp
12788 12790     1   0.1111   0.1111
[ bonds ]
12788 12791     1    0.153   186188    0.153   186188
[ constraints ] ; from mdp
12791 12792     1   0.1111   0.1111
[ constraints ] ; from mdp
12791 12793     1   0.1111   0.1111
[ bonds ]
12791 12794     1    0.153   186188    0.153   186188
[ constraints ] ; from mdp
12794 12795     1   0.1111   0.1111
[ constraints ] ; from mdp
12794 12796     1   0.1111   0.1111
[ bonds ]
12794 12797     1    0.153   186188    0.153   186188
[ constraints ] ; from mdp
12797 12798     1   0.1111   0.1111
[ constraints ] ; from mdp
12797 12799     1   0.1111   0.1111
[ bonds ]
12797 12800     1    0.153   186188    0.153   186188
[ constraints ] ; from mdp
12800 12801     1   0.1111   0.1111
[ constraints ] ; from mdp
12800 12802     1   0.1111   0.1111
[ bonds ]
12800 12803     1    0.153   186188    0.153   186188
[ constraints ] ; from mdp
12803 12804     1   0.1111   0.1111
[ constraints ] ; from mdp
12803 12805     1   0.1111   0.1111
[ bonds ]
12803 12806     1    0.153   186188    0.153   186188
[ constraints ] ; from mdp
12806 12807     1   0.1111   0.1111
[ constraints ] ; from mdp
12806 12808     1   0.1111   0.1111
[ bonds ]
12806 12809     1    0.153   186188    0.153   186188
[ constraints ] ; from mdp
12809 12810     1   0.1111   0.1111
[ constraints ] ; from mdp
12809 12811     1   0.1111   0.1111
[ bonds ]
12809 12812     1    0.153   186188    0.153   186188
[ constraints ] ; from mdp
12812 12813     1   0.1111   0.1111
[ constraints ] ; from mdp
12812 12814     1   0.1111   0.1111
[ bonds ]
12812 12815     1    0.153   186188    0.153   186188
[ constraints ] ; from mdp
12815 12816     1   0.1111   0.1111
[ constraints ] ; from mdp
12815 12817     1   0.1111   0.1111
[ bonds ]
12815 12818     1    0.153   186188    0.153   186188
[ constraints ] ; from mdp
12818 12819     1   0.1111   0.1111
[ constraints ] ; from mdp
12818 12820     1   0.1111   0.1111
[ bonds ]
12818 12821     1    0.153   186188    0.153   186188
[ constraints ] ; from mdp
12821 12822     1   0.1111   0.1111
[ constraints ] ; from mdp
12821 12823     1   0.1111   0.1111
[ bonds ]
12821 12824     1   0.1528   186188   0.1528   186188
[ constraints ] ; from mdp
12824 12825     1   0.1111   0.1111
[ constraints ] ; from mdp
12824 12826     1   0.1111   0.1111
[ constraints ] ; from mdp
12824 12827     1   0.1111   0.1111
[ constraints ] ; from mdp
12828 12829     1   0.1111   0.1111
[ constraints ] ; from mdp
12828 12830     1   0.1111   0.1111
[ bonds ]
12828 12831     1    0.153   186188    0.153   186188
[ constraints ] ; from mdp
12831 12832     1   0.1111   0.1111
[ constraints ] ; from mdp
12831 12833     1   0.1111   0.1111
[ bonds ]
12831 12834     1    0.153   186188    0.153   186188
[ constraints ] ; from mdp
12834 12835     1   0.1111   0.1111
[ constraints ] ; from mdp
12834 12836     1   0.1111   0.1111
[ bonds ]
12834 12837     1    0.153   186188    0.153   186188
[ constraints ] ; from mdp
12837 12838     1   0.1111   0.1111
[ constraints ] ; from mdp
12837 12839     1   0.1111   0.1111
[ bonds ]
12837 12840     1    0.153   186188    0.153   186188
[ constraints ] ; from mdp
12840 12841     1   0.1111   0.1111
[ constraints ] ; from mdp
12840 12842     1   0.1111   0.1111
[ bonds ]
12840 12843     1    0.153   186188    0.153   186188
[ constraints ] ; from mdp
12843 12844     1   0.1111   0.1111
[ constraints ] ; from mdp
12843 12845     1   0.1111   0.1111
[ bonds ]
12843 12846     1    0.153   186188    0.153   186188
[ constraints ] ; from mdp
12846 12847     1   0.1111   0.1111
[ constraints ] ; from mdp
12846 12848     1   0.1111   0.1111
[ bonds ]
12846 12849     1    0.153   186188    0.153   186188
[ constraints ] ; from mdp
12849 12850     1   0.1111   0.1111
[ constraints ] ; from mdp
12849 12851     1   0.1111   0.1111
[ bonds ]
12849 12852     1    0.153   186188    0.153   186188
[ constraints ] ; from mdp
12852 12853     1   0.1111   0.1111
[ constraints ] ; from mdp
12852 12854     1   0.1111   0.1111
[ bonds ]
12852 12855     1    0.153   186188    0.153   186188
[ constraints ] ; from mdp
12855 12856     1   0.1111   0.1111
[ constraints ] ; from mdp
12855 12857     1   0.1111   0.1111
[ bonds ]
12855 12858     1    0.153   186188    0.153   186188
[ constraints ] ; from mdp
12858 12859     1   0.1111   0.1111
[ constraints ] ; from mdp
12858 12860     1   0.1111   0.1111
[ bonds ]
12858 12861     1    0.153   186188    0.153   186188
[ constraints ] ; from mdp
12861 12862     1   0.1111   0.1111
[ constraints ] ; from mdp
12861 12863     1   0.1111   0.1111
[ bonds ]
12861 12864     1    0.153   186188    0.153   186188
[ constraints ] ; from mdp
12864 12865     1   0.1111   0.1111
[ constraints ] ; from mdp
12864 12866     1   0.1111   0.1111
[ bonds ]
12864 12867     1   0.1528   186188   0.1528   186188
[ constraints ] ; from mdp
12867 12868     1   0.1111   0.1111
[ constraints ] ; from mdp
12867 12869     1   0.1111   0.1111
[ constraints ] ; from mdp
12867 12870     1   0.1111   0.1111
[ bonds ]
12871 12872     1    0.151   179912    0.151   179912
[ bonds ]
12871 12876     1    0.151   179912    0.151   179912
[ bonds ]
12871 12880     1    0.151   179912    0.151   179912
[ bonds ]
12871 12884     1    0.151   179912    0.151   179912
[ constraints ] ; from mdp
12872 12873     1    0.108    0.108
[ constraints ] ; from mdp
12872 12874     1    0.108    0.108
[ constraints ] ; from mdp
12872 12875     1    0.108    0.108
[ constraints ] ; from mdp
12876 12877     1    0.108    0.108
[ constraints ] ; from mdp
12876 12878     1    0.108    0.108
[ constraints ] ; from mdp
12876 12879     1    0.108    0.108
[ constraints ] ; from mdp
12880 12881     1    0.108    0.108
[ constraints ] ; from mdp
12880 12882     1    0.108    0.108
[ constraints ] ; from mdp
12880 12883     1    0.108    0.108
[ constraints ] ; from mdp
12884 12885     1    0.108    0.108
[ constraints ] ; from mdp
12884 12886     1    0.108    0.108
[ bonds ]
12884 12887     1    0.153   186188    0.153   186188
[ constraints ] ; from mdp
12887 12888     1   0.1111   0.1111
[ constraints ] ; from mdp
12887 12889     1   0.1111   0.1111
[ bonds ]
12887 12894     1    0.143   284512    0.143   284512
[ bonds ]
12890 12891     1    0.148   485344    0.148   485344
[ bonds ]
12890 12892     1    0.148   485344    0.148   485344
[ bonds ]
12890 12893     1     0.16   225936     0.16   225936
[ bonds ]
12890 12894     1     0.16   225936     0.16   225936
[ bonds ]
12893 12895     1    0.143   284512    0.143   284512
[ constraints ] ; from mdp
12895 12896     1   0.1111   0.1111
[ constraints ] ; from mdp
12895 12897     1   0.1111   0.1111
[ bonds ]
12895 12898     1   0.1538   186188   0.1538   186188
[ constraints ] ; from mdp
12898 12899     1   0.1111   0.1111
[ bonds ]
12898 12900     1    0.143   284512    0.143   284512
[ bonds ]
12898 12906     1   0.1538   186188   0.1538   186188
[ bonds ]
12900 12901     1   0.1334   125520   0.1334   125520
[ bonds ]
12901 12902     1    0.122   627600    0.122   627600
[ bonds ]
12901 12903     1   0.1522   167360   0.1522   167360
[ constraints ] ; from mdp
12903 12904     1   0.1111   0.1111
[ constraints ] ; from mdp
12903 12905     1   0.1111   0.1111
[ bonds ]
12903 12915     1    0.153   186188    0.153   186188
[ constraints ] ; from mdp
12906 12907     1   0.1111   0.1111
[ constraints ] ; from mdp
12906 12908     1   0.1111   0.1111
[ bonds ]
12906 12909     1    0.143   284512    0.143   284512
[ bonds ]
12909 12910     1   0.1334   125520   0.1334   125520
[ bonds ]
12910 12911     1    0.122   627600    0.122   627600
[ bonds ]
12910 12912     1   0.1522   167360   0.1522   167360
[ constraints ] ; from mdp
12912 12913     1   0.1111   0.1111
[ constraints ] ; from mdp
12912 12914     1   0.1111   0.1111
[ bonds ]
12912 12958     1    0.153   186188    0.153   186188
[ constraints ] ; from mdp
12915 12916     1   0.1111   0.1111
[ constraints ] ; from mdp
12915 12917     1   0.1111   0.1111
[ bonds ]
12915 12918     1    0.153   186188    0.153   186188
[ constraints ] ; from mdp
12918 12919     1   0.1111   0.1111
[ constraints ] ; from mdp
12918 12920     1   0.1111   0.1111
[ bonds ]
12918 12921     1    0.153   186188    0.153   186188
[ constraints ] ; from mdp
12921 12922     1   0.1111   0.1111
[ constraints ] ; from mdp
12921 12923     1   0.1111   0.1111
[ bonds ]
12921 12924     1    0.153   186188    0.153   186188
[ constraints ] ; from mdp
12924 12925     1   0.1111   0.1111
[ constraints ] ; from mdp
12924 12926     1   0.1111   0.1111
[ bonds ]
12924 12927     1    0.153   186188    0.153   186188
[ constraints ] ; from mdp
12927 12928     1   0.1111   0.1111
[ constraints ] ; from mdp
12927 12929     1   0.1111   0.1111
[ bonds ]
12927 12930     1    0.153   186188    0.153   186188
[ constraints ] ; from mdp
12930 12931     1   0.1111   0.1111
[ constraints ] ; from mdp
12930 12932     1   0.1111   0.1111
[ bonds ]
12930 12933     1    0.153   186188    0.153   186188
[ constraints ] ; from mdp
12933 12934     1   0.1111   0.1111
[ constraints ] ; from mdp
12933 12935     1   0.1111   0.1111
[ bonds ]
12933 12936     1    0.153   186188    0.153   186188
[ constraints ] ; from mdp
12936 12937     1   0.1111   0.1111
[ constraints ] ; from mdp
12936 12938     1   0.1111   0.1111
[ bonds ]
12936 12939     1    0.153   186188    0.153   186188
[ constraints ] ; from mdp
12939 12940     1   0.1111   0.1111
[ constraints ] ; from mdp
12939 12941     1   0.1111   0.1111
[ bonds ]
12939 12942     1    0.153   186188    0.153   186188
[ constraints ] ; from mdp
12942 12943     1   0.1111   0.1111
[ constraints ] ; from mdp
12942 12944     1   0.1111   0.1111
[ bonds ]
12942 12945     1    0.153   186188    0.153   186188
[ constraints ] ; from mdp
12945 12946     1   0.1111   0.1111
[ constraints ] ; from mdp
12945 12947     1   0.1111   0.1111
[ bonds ]
12945 12948     1    0.153   186188    0.153   186188
[ constraints ] ; from mdp
12948 12949     1   0.1111   0.1111
[ constraints ] ; from mdp
12948 12950     1   0.1111   0.1111
[ bonds ]
12948 12951     1    0.153   186188    0.153   186188
[ constraints ] ; from mdp
12951 12952     1   0.1111   0.1111
[ constraints ] ; from mdp
12951 12953     1   0.1111   0.1111
[ bonds ]
12951 12954     1   0.1528   186188   0.1528   186188
[ constraints ] ; from mdp
12954 12955     1   0.1111   0.1111
[ constraints ] ; from mdp
12954 12956     1   0.1111   0.1111
[ constraints ] ; from mdp
12954 12957     1   0.1111   0.1111
[ constraints ] ; from mdp
12958 12959     1   0.1111   0.1111
[ constraints ] ; from mdp
12958 12960     1   0.1111   0.1111
[ bonds ]
12958 12961     1    0.153   186188    0.153   186188
[ constraints ] ; from mdp
12961 12962     1   0.1111   0.1111
[ constraints ] ; from mdp
12961 12963     1   0.1111   0.1111
[ bonds ]
12961 12964     1    0.153   186188    0.153   186188
[ constraints ] ; from mdp
12964 12965     1   0.1111   0.1111
[ constraints ] ; from mdp
12964 12966     1   0.1111   0.1111
[ bonds ]
12964 12967     1    0.153   186188    0.153   186188
[ constraints ] ; from mdp
12967 12968     1   0.1111   0.1111
[ constraints ] ; from mdp
12967 12969     1   0.1111   0.1111
[ bonds ]
12967 12970     1    0.153   186188    0.153   186188
[ constraints ] ; from mdp
12970 12971     1   0.1111   0.1111
[ constraints ] ; from mdp
12970 12972     1   0.1111   0.1111
[ bonds ]
12970 12973     1    0.153   186188    0.153   186188
[ constraints ] ; from mdp
12973 12974     1   0.1111   0.1111
[ constraints ] ; from mdp
12973 12975     1   0.1111   0.1111
[ bonds ]
12973 12976     1    0.153   186188    0.153   186188
[ constraints ] ; from mdp
12976 12977     1   0.1111   0.1111
[ constraints ] ; from mdp
12976 12978     1   0.1111   0.1111
[ bonds ]
12976 12979     1    0.153   186188    0.153   186188
[ constraints ] ; from mdp
12979 12980     1   0.1111   0.1111
[ constraints ] ; from mdp
12979 12981     1   0.1111   0.1111
[ bonds ]
12979 12982     1    0.153   186188    0.153   186188
[ constraints ] ; from mdp
12982 12983     1   0.1111   0.1111
[ constraints ] ; from mdp
12982 12984     1   0.1111   0.1111
[ bonds ]
12982 12985     1    0.153   186188    0.153   186188
[ constraints ] ; from mdp
12985 12986     1   0.1111   0.1111
[ constraints ] ; from mdp
12985 12987     1   0.1111   0.1111
[ bonds ]
12985 12988     1    0.153   186188    0.153   186188
[ constraints ] ; from mdp
12988 12989     1   0.1111   0.1111
[ constraints ] ; from mdp
12988 12990     1   0.1111   0.1111
[ bonds ]
12988 12991     1    0.153   186188    0.153   186188
[ constraints ] ; from mdp
12991 12992     1   0.1111   0.1111
[ constraints ] ; from mdp
12991 12993     1   0.1111   0.1111
[ bonds ]
12991 12994     1    0.153   186188    0.153   186188
[ constraints ] ; from mdp
12994 12995     1   0.1111   0.1111
[ constraints ] ; from mdp
12994 12996     1   0.1111   0.1111
[ bonds ]
12994 12997     1   0.1528   186188   0.1528   186188
[ constraints ] ; from mdp
12997 12998     1   0.1111   0.1111
[ constraints ] ; from mdp
12997 12999     1   0.1111   0.1111
[ constraints ] ; from mdp
12997 13000     1   0.1111   0.1111
[ bonds ]
13001 13002     1    0.151   179912    0.151   179912
[ bonds ]
13001 13006     1    0.151   179912    0.151   179912
[ bonds ]
13001 13010     1    0.151   179912    0.151   179912
[ bonds ]
13001 13014     1    0.151   179912    0.151   179912
[ constraints ] ; from mdp
13002 13003     1    0.108    0.108
[ constraints ] ; from mdp
13002 13004     1    0.108    0.108
[ constraints ] ; from mdp
13002 13005     1    0.108    0.108
[ constraints ] ; from mdp
13006 13007     1    0.108    0.108
[ constraints ] ; from mdp
13006 13008     1    0.108    0.108
[ constraints ] ; from mdp
13006 13009     1    0.108    0.108
[ constraints ] ; from mdp
13010 13011     1    0.108    0.108
[ constraints ] ; from mdp
13010 13012     1    0.108    0.108
[ constraints ] ; from mdp
13010 13013     1    0.108    0.108
[ constraints ] ; from mdp
13014 13015     1    0.108    0.108
[ constraints ] ; from mdp
13014 13016     1    0.108    0.108
[ bonds ]
13014 13017     1    0.153   186188    0.153   186188
[ constraints ] ; from mdp
13017 13018     1   0.1111   0.1111
[ constraints ] ; from mdp
13017 13019     1   0.1111   0.1111
[ bonds ]
13017 13024     1    0.143   284512    0.143   284512
[ bonds ]
13020 13021     1    0.148   485344    0.148   485344
[ bonds ]
13020 13022     1    0.148   485344    0.148   485344
[ bonds ]
13020 13023     1     0.16   225936     0.16   225936
[ bonds ]
13020 13024     1     0.16   225936     0.16   225936
[ bonds ]
13023 13025     1    0.143   284512    0.143   284512
[ constraints ] ; from mdp
13025 13026     1   0.1111   0.1111
[ constraints ] ; from mdp
13025 13027     1   0.1111   0.1111
[ bonds ]
13025 13028     1   0.1538   186188   0.1538   186188
[ constraints ] ; from mdp
13028 13029     1   0.1111   0.1111
[ bonds ]
13028 13030     1    0.143   284512    0.143   284512
[ bonds ]
13028 13036     1   0.1538   186188   0.1538   186188
[ bonds ]
13030 13031     1   0.1334   125520   0.1334   125520
[ bonds ]
13031 13032     1    0.122   627600    0.122   627600
[ bonds ]
13031 13033     1   0.1522   167360   0.1522   167360
[ constraints ] ; from mdp
13033 13034     1   0.1111   0.1111
[ constraints ] ; from mdp
13033 13035     1   0.1111   0.1111
[ bonds ]
13033 13045     1    0.153   186188    0.153   186188
[ constraints ] ; from mdp
13036 13037     1   0.1111   0.1111
[ constraints ] ; from mdp
13036 13038     1   0.1111   0.1111
[ bonds ]
13036 13039     1    0.143   284512    0.143   284512
[ bonds ]
13039 13040     1   0.1334   125520   0.1334   125520
[ bonds ]
13040 13041     1    0.122   627600    0.122   627600
[ bonds ]
13040 13042     1   0.1522   167360   0.1522   167360
[ constraints ] ; from mdp
13042 13043     1   0.1111   0.1111
[ constraints ] ; from mdp
13042 13044     1   0.1111   0.1111
[ bonds ]
13042 13088     1    0.153   186188    0.153   186188
[ constraints ] ; from mdp
13045 13046     1   0.1111   0.1111
[ constraints ] ; from mdp
13045 13047     1   0.1111   0.1111
[ bonds ]
13045 13048     1    0.153   186188    0.153   186188
[ constraints ] ; from mdp
13048 13049     1   0.1111   0.1111
[ constraints ] ; from mdp
13048 13050     1   0.1111   0.1111
[ bonds ]
13048 13051     1    0.153   186188    0.153   186188
[ constraints ] ; from mdp
13051 13052     1   0.1111   0.1111
[ constraints ] ; from mdp
13051 13053     1   0.1111   0.1111
[ bonds ]
13051 13054     1    0.153   186188    0.153   186188
[ constraints ] ; from mdp
13054 13055     1   0.1111   0.1111
[ constraints ] ; from mdp
13054 13056     1   0.1111   0.1111
[ bonds ]
13054 13057     1    0.153   186188    0.153   186188
[ constraints ] ; from mdp
13057 13058     1   0.1111   0.1111
[ constraints ] ; from mdp
13057 13059     1   0.1111   0.1111
[ bonds ]
13057 13060     1    0.153   186188    0.153   186188
[ constraints ] ; from mdp
13060 13061     1   0.1111   0.1111
[ constraints ] ; from mdp
13060 13062     1   0.1111   0.1111
[ bonds ]
13060 13063     1    0.153   186188    0.153   186188
[ constraints ] ; from mdp
13063 13064     1   0.1111   0.1111
[ constraints ] ; from mdp
13063 13065     1   0.1111   0.1111
[ bonds ]
13063 13066     1    0.153   186188    0.153   186188
[ constraints ] ; from mdp
13066 13067     1   0.1111   0.1111
[ constraints ] ; from mdp
13066 13068     1   0.1111   0.1111
[ bonds ]
13066 13069     1    0.153   186188    0.153   186188
[ constraints ] ; from mdp
13069 13070     1   0.1111   0.1111
[ constraints ] ; from mdp
13069 13071     1   0.1111   0.1111
[ bonds ]
13069 13072     1    0.153   186188    0.153   186188
[ constraints ] ; from mdp
13072 13073     1   0.1111   0.1111
[ constraints ] ; from mdp
13072 13074     1   0.1111   0.1111
[ bonds ]
13072 13075     1    0.153   186188    0.153   186188
[ constraints ] ; from mdp
13075 13076     1   0.1111   0.1111
[ constraints ] ; from mdp
13075 13077     1   0.1111   0.1111
[ bonds ]
13075 13078     1    0.153   186188    0.153   186188
[ constraints ] ; from mdp
13078 13079     1   0.1111   0.1111
[ constraints ] ; from mdp
13078 13080     1   0.1111   0.1111
[ bonds ]
13078 13081     1    0.153   186188    0.153   186188
[ constraints ] ; from mdp
13081 13082     1   0.1111   0.1111
[ constraints ] ; from mdp
13081 13083     1   0.1111   0.1111
[ bonds ]
13081 13084     1   0.1528   186188   0.1528   186188
[ constraints ] ; from mdp
13084 13085     1   0.1111   0.1111
[ constraints ] ; from mdp
13084 13086     1   0.1111   0.1111
[ constraints ] ; from mdp
13084 13087     1   0.1111   0.1111
[ constraints ] ; from mdp
13088 13089     1   0.1111   0.1111
[ constraints ] ; from mdp
13088 13090     1   0.1111   0.1111
[ bonds ]
13088 13091     1    0.153   186188    0.153   186188
[ constraints ] ; from mdp
13091 13092     1   0.1111   0.1111
[ constraints ] ; from mdp
13091 13093     1   0.1111   0.1111
[ bonds ]
13091 13094     1    0.153   186188    0.153   186188
[ constraints ] ; from mdp
13094 13095     1   0.1111   0.1111
[ constraints ] ; from mdp
13094 13096     1   0.1111   0.1111
[ bonds ]
13094 13097     1    0.153   186188    0.153   186188
[ constraints ] ; from mdp
13097 13098     1   0.1111   0.1111
[ constraints ] ; from mdp
13097 13099     1   0.1111   0.1111
[ bonds ]
13097 13100     1    0.153   186188    0.153   186188
[ constraints ] ; from mdp
13100 13101     1   0.1111   0.1111
[ constraints ] ; from mdp
13100 13102     1   0.1111   0.1111
[ bonds ]
13100 13103     1    0.153   186188    0.153   186188
[ constraints ] ; from mdp
13103 13104     1   0.1111   0.1111
[ constraints ] ; from mdp
13103 13105     1   0.1111   0.1111
[ bonds ]
13103 13106     1    0.153   186188    0.153   186188
[ constraints ] ; from mdp
13106 13107     1   0.1111   0.1111
[ constraints ] ; from mdp
13106 13108     1   0.1111   0.1111
[ bonds ]
13106 13109     1    0.153   186188    0.153   186188
[ constraints ] ; from mdp
13109 13110     1   0.1111   0.1111
[ constraints ] ; from mdp
13109 13111     1   0.1111   0.1111
[ bonds ]
13109 13112     1    0.153   186188    0.153   186188
[ constraints ] ; from mdp
13112 13113     1   0.1111   0.1111
[ constraints ] ; from mdp
13112 13114     1   0.1111   0.1111
[ bonds ]
13112 13115     1    0.153   186188    0.153   186188
[ constraints ] ; from mdp
13115 13116     1   0.1111   0.1111
[ constraints ] ; from mdp
13115 13117     1   0.1111   0.1111
[ bonds ]
13115 13118     1    0.153   186188    0.153   186188
[ constraints ] ; from mdp
13118 13119     1   0.1111   0.1111
[ constraints ] ; from mdp
13118 13120     1   0.1111   0.1111
[ bonds ]
13118 13121     1    0.153   186188    0.153   186188
[ constraints ] ; from mdp
13121 13122     1   0.1111   0.1111
[ constraints ] ; from mdp
13121 13123     1   0.1111   0.1111
[ bonds ]
13121 13124     1    0.153   186188    0.153   186188
[ constraints ] ; from mdp
13124 13125     1   0.1111   0.1111
[ constraints ] ; from mdp
13124 13126     1   0.1111   0.1111
[ bonds ]
13124 13127     1   0.1528   186188   0.1528   186188
[ constraints ] ; from mdp
13127 13128     1   0.1111   0.1111
[ constraints ] ; from mdp
13127 13129     1   0.1111   0.1111
[ constraints ] ; from mdp
13127 13130     1   0.1111   0.1111
[ bonds ]
13131 13132     1    0.151   179912    0.151   179912
[ bonds ]
13131 13136     1    0.151   179912    0.151   179912
[ bonds ]
13131 13140     1    0.151   179912    0.151   179912
[ bonds ]
13131 13144     1    0.151   179912    0.151   179912
[ constraints ] ; from mdp
13132 13133     1    0.108    0.108
[ constraints ] ; from mdp
13132 13134     1    0.108    0.108
[ constraints ] ; from mdp
13132 13135     1    0.108    0.108
[ constraints ] ; from mdp
13136 13137     1    0.108    0.108
[ constraints ] ; from mdp
13136 13138     1    0.108    0.108
[ constraints ] ; from mdp
13136 13139     1    0.108    0.108
[ constraints ] ; from mdp
13140 13141     1    0.108    0.108
[ constraints ] ; from mdp
13140 13142     1    0.108    0.108
[ constraints ] ; from mdp
13140 13143     1    0.108    0.108
[ constraints ] ; from mdp
13144 13145     1    0.108    0.108
[ constraints ] ; from mdp
13144 13146     1    0.108    0.108
[ bonds ]
13144 13147     1    0.153   186188    0.153   186188
[ constraints ] ; from mdp
13147 13148     1   0.1111   0.1111
[ constraints ] ; from mdp
13147 13149     1   0.1111   0.1111
[ bonds ]
13147 13154     1    0.143   284512    0.143   284512
[ bonds ]
13150 13151     1    0.148   485344    0.148   485344
[ bonds ]
13150 13152     1    0.148   485344    0.148   485344
[ bonds ]
13150 13153     1     0.16   225936     0.16   225936
[ bonds ]
13150 13154     1     0.16   225936     0.16   225936
[ bonds ]
13153 13155     1    0.143   284512    0.143   284512
[ constraints ] ; from mdp
13155 13156     1   0.1111   0.1111
[ constraints ] ; from mdp
13155 13157     1   0.1111   0.1111
[ bonds ]
13155 13158     1   0.1538   186188   0.1538   186188
[ constraints ] ; from mdp
13158 13159     1   0.1111   0.1111
[ bonds ]
13158 13160     1    0.143   284512    0.143   284512
[ bonds ]
13158 13166     1   0.1538   186188   0.1538   186188
[ bonds ]
13160 13161     1   0.1334   125520   0.1334   125520
[ bonds ]
13161 13162     1    0.122   627600    0.122   627600
[ bonds ]
13161 13163     1   0.1522   167360   0.1522   167360
[ constraints ] ; from mdp
13163 13164     1   0.1111   0.1111
[ constraints ] ; from mdp
13163 13165     1   0.1111   0.1111
[ bonds ]
13163 13175     1    0.153   186188    0.153   186188
[ constraints ] ; from mdp
13166 13167     1   0.1111   0.1111
[ constraints ] ; from mdp
13166 13168     1   0.1111   0.1111
[ bonds ]
13166 13169     1    0.143   284512    0.143   284512
[ bonds ]
13169 13170     1   0.1334   125520   0.1334   125520
[ bonds ]
13170 13171     1    0.122   627600    0.122   627600
[ bonds ]
13170 13172     1   0.1522   167360   0.1522   167360
[ constraints ] ; from mdp
13172 13173     1   0.1111   0.1111
[ constraints ] ; from mdp
13172 13174     1   0.1111   0.1111
[ bonds ]
13172 13218     1    0.153   186188    0.153   186188
[ constraints ] ; from mdp
13175 13176     1   0.1111   0.1111
[ constraints ] ; from mdp
13175 13177     1   0.1111   0.1111
[ bonds ]
13175 13178     1    0.153   186188    0.153   186188
[ constraints ] ; from mdp
13178 13179     1   0.1111   0.1111
[ constraints ] ; from mdp
13178 13180     1   0.1111   0.1111
[ bonds ]
13178 13181     1    0.153   186188    0.153   186188
[ constraints ] ; from mdp
13181 13182     1   0.1111   0.1111
[ constraints ] ; from mdp
13181 13183     1   0.1111   0.1111
[ bonds ]
13181 13184     1    0.153   186188    0.153   186188
[ constraints ] ; from mdp
13184 13185     1   0.1111   0.1111
[ constraints ] ; from mdp
13184 13186     1   0.1111   0.1111
[ bonds ]
13184 13187     1    0.153   186188    0.153   186188
[ constraints ] ; from mdp
13187 13188     1   0.1111   0.1111
[ constraints ] ; from mdp
13187 13189     1   0.1111   0.1111
[ bonds ]
13187 13190     1    0.153   186188    0.153   186188
[ constraints ] ; from mdp
13190 13191     1   0.1111   0.1111
[ constraints ] ; from mdp
13190 13192     1   0.1111   0.1111
[ bonds ]
13190 13193     1    0.153   186188    0.153   186188
[ constraints ] ; from mdp
13193 13194     1   0.1111   0.1111
[ constraints ] ; from mdp
13193 13195     1   0.1111   0.1111
[ bonds ]
13193 13196     1    0.153   186188    0.153   186188
[ constraints ] ; from mdp
13196 13197     1   0.1111   0.1111
[ constraints ] ; from mdp
13196 13198     1   0.1111   0.1111
[ bonds ]
13196 13199     1    0.153   186188    0.153   186188
[ constraints ] ; from mdp
13199 13200     1   0.1111   0.1111
[ constraints ] ; from mdp
13199 13201     1   0.1111   0.1111
[ bonds ]
13199 13202     1    0.153   186188    0.153   186188
[ constraints ] ; from mdp
13202 13203     1   0.1111   0.1111
[ constraints ] ; from mdp
13202 13204     1   0.1111   0.1111
[ bonds ]
13202 13205     1    0.153   186188    0.153   186188
[ constraints ] ; from mdp
13205 13206     1   0.1111   0.1111
[ constraints ] ; from mdp
13205 13207     1   0.1111   0.1111
[ bonds ]
13205 13208     1    0.153   186188    0.153   186188
[ constraints ] ; from mdp
13208 13209     1   0.1111   0.1111
[ constraints ] ; from mdp
13208 13210     1   0.1111   0.1111
[ bonds ]
13208 13211     1    0.153   186188    0.153   186188
[ constraints ] ; from mdp
13211 13212     1   0.1111   0.1111
[ constraints ] ; from mdp
13211 13213     1   0.1111   0.1111
[ bonds ]
13211 13214     1   0.1528   186188   0.1528   186188
[ constraints ] ; from mdp
13214 13215     1   0.1111   0.1111
[ constraints ] ; from mdp
13214 13216     1   0.1111   0.1111
[ constraints ] ; from mdp
13214 13217     1   0.1111   0.1111
[ constraints ] ; from mdp
13218 13219     1   0.1111   0.1111
[ constraints ] ; from mdp
13218 13220     1   0.1111   0.1111
[ bonds ]
13218 13221     1    0.153   186188    0.153   186188
[ constraints ] ; from mdp
13221 13222     1   0.1111   0.1111
[ constraints ] ; from mdp
13221 13223     1   0.1111   0.1111
[ bonds ]
13221 13224     1    0.153   186188    0.153   186188
[ constraints ] ; from mdp
13224 13225     1   0.1111   0.1111
[ constraints ] ; from mdp
13224 13226     1   0.1111   0.1111
[ bonds ]
13224 13227     1    0.153   186188    0.153   186188
[ constraints ] ; from mdp
13227 13228     1   0.1111   0.1111
[ constraints ] ; from mdp
13227 13229     1   0.1111   0.1111
[ bonds ]
13227 13230     1    0.153   186188    0.153   186188
[ constraints ] ; from mdp
13230 13231     1   0.1111   0.1111
[ constraints ] ; from mdp
13230 13232     1   0.1111   0.1111
[ bonds ]
13230 13233     1    0.153   186188    0.153   186188
[ constraints ] ; from mdp
13233 13234     1   0.1111   0.1111
[ constraints ] ; from mdp
13233 13235     1   0.1111   0.1111
[ bonds ]
13233 13236     1    0.153   186188    0.153   186188
[ constraints ] ; from mdp
13236 13237     1   0.1111   0.1111
[ constraints ] ; from mdp
13236 13238     1   0.1111   0.1111
[ bonds ]
13236 13239     1    0.153   186188    0.153   186188
[ constraints ] ; from mdp
13239 13240     1   0.1111   0.1111
[ constraints ] ; from mdp
13239 13241     1   0.1111   0.1111
[ bonds ]
13239 13242     1    0.153   186188    0.153   186188
[ constraints ] ; from mdp
13242 13243     1   0.1111   0.1111
[ constraints ] ; from mdp
13242 13244     1   0.1111   0.1111
[ bonds ]
13242 13245     1    0.153   186188    0.153   186188
[ constraints ] ; from mdp
13245 13246     1   0.1111   0.1111
[ constraints ] ; from mdp
13245 13247     1   0.1111   0.1111
[ bonds ]
13245 13248     1    0.153   186188    0.153   186188
[ constraints ] ; from mdp
13248 13249     1   0.1111   0.1111
[ constraints ] ; from mdp
13248 13250     1   0.1111   0.1111
[ bonds ]
13248 13251     1    0.153   186188    0.153   186188
[ constraints ] ; from mdp
13251 13252     1   0.1111   0.1111
[ constraints ] ; from mdp
13251 13253     1   0.1111   0.1111
[ bonds ]
13251 13254     1    0.153   186188    0.153   186188
[ constraints ] ; from mdp
13254 13255     1   0.1111   0.1111
[ constraints ] ; from mdp
13254 13256     1   0.1111   0.1111
[ bonds ]
13254 13257     1   0.1528   186188   0.1528   186188
[ constraints ] ; from mdp
13257 13258     1   0.1111   0.1111
[ constraints ] ; from mdp
13257 13259     1   0.1111   0.1111
[ constraints ] ; from mdp
13257 13260     1   0.1111   0.1111
[ bonds ]
13261 13262     1    0.151   179912    0.151   179912
[ bonds ]
13261 13266     1    0.151   179912    0.151   179912
[ bonds ]
13261 13270     1    0.151   179912    0.151   179912
[ bonds ]
13261 13274     1    0.151   179912    0.151   179912
[ constraints ] ; from mdp
13262 13263     1    0.108    0.108
[ constraints ] ; from mdp
13262 13264     1    0.108    0.108
[ constraints ] ; from mdp
13262 13265     1    0.108    0.108
[ constraints ] ; from mdp
13266 13267     1    0.108    0.108
[ constraints ] ; from mdp
13266 13268     1    0.108    0.108
[ constraints ] ; from mdp
13266 13269     1    0.108    0.108
[ constraints ] ; from mdp
13270 13271     1    0.108    0.108
[ constraints ] ; from mdp
13270 13272     1    0.108    0.108
[ constraints ] ; from mdp
13270 13273     1    0.108    0.108
[ constraints ] ; from mdp
13274 13275     1    0.108    0.108
[ constraints ] ; from mdp
13274 13276     1    0.108    0.108
[ bonds ]
13274 13277     1    0.153   186188    0.153   186188
[ constraints ] ; from mdp
13277 13278     1   0.1111   0.1111
[ constraints ] ; from mdp
13277 13279     1   0.1111   0.1111
[ bonds ]
13277 13284     1    0.143   284512    0.143   284512
[ bonds ]
13280 13281     1    0.148   485344    0.148   485344
[ bonds ]
13280 13282     1    0.148   485344    0.148   485344
[ bonds ]
13280 13283     1     0.16   225936     0.16   225936
[ bonds ]
13280 13284     1     0.16   225936     0.16   225936
[ bonds ]
13283 13285     1    0.143   284512    0.143   284512
[ constraints ] ; from mdp
13285 13286     1   0.1111   0.1111
[ constraints ] ; from mdp
13285 13287     1   0.1111   0.1111
[ bonds ]
13285 13288     1   0.1538   186188   0.1538   186188
[ constraints ] ; from mdp
13288 13289     1   0.1111   0.1111
[ bonds ]
13288 13290     1    0.143   284512    0.143   284512
[ bonds ]
13288 13296     1   0.1538   186188   0.1538   186188
[ bonds ]
13290 13291     1   0.1334   125520   0.1334   125520
[ bonds ]
13291 13292     1    0.122   627600    0.122   627600
[ bonds ]
13291 13293     1   0.1522   167360   0.1522   167360
[ constraints ] ; from mdp
13293 13294     1   0.1111   0.1111
[ constraints ] ; from mdp
13293 13295     1   0.1111   0.1111
[ bonds ]
13293 13305     1    0.153   186188    0.153   186188
[ constraints ] ; from mdp
13296 13297     1   0.1111   0.1111
[ constraints ] ; from mdp
13296 13298     1   0.1111   0.1111
[ bonds ]
13296 13299     1    0.143   284512    0.143   284512
[ bonds ]
13299 13300     1   0.1334   125520   0.1334   125520
[ bonds ]
13300 13301     1    0.122   627600    0.122   627600
[ bonds ]
13300 13302     1   0.1522   167360   0.1522   167360
[ constraints ] ; from mdp
13302 13303     1   0.1111   0.1111
[ constraints ] ; from mdp
13302 13304     1   0.1111   0.1111
[ bonds ]
13302 13348     1    0.153   186188    0.153   186188
[ constraints ] ; from mdp
13305 13306     1   0.1111   0.1111
[ constraints ] ; from mdp
13305 13307     1   0.1111   0.1111
[ bonds ]
13305 13308     1    0.153   186188    0.153   186188
[ constraints ] ; from mdp
13308 13309     1   0.1111   0.1111
[ constraints ] ; from mdp
13308 13310     1   0.1111   0.1111
[ bonds ]
13308 13311     1    0.153   186188    0.153   186188
[ constraints ] ; from mdp
13311 13312     1   0.1111   0.1111
[ constraints ] ; from mdp
13311 13313     1   0.1111   0.1111
[ bonds ]
13311 13314     1    0.153   186188    0.153   186188
[ constraints ] ; from mdp
13314 13315     1   0.1111   0.1111
[ constraints ] ; from mdp
13314 13316     1   0.1111   0.1111
[ bonds ]
13314 13317     1    0.153   186188    0.153   186188
[ constraints ] ; from mdp
13317 13318     1   0.1111   0.1111
[ constraints ] ; from mdp
13317 13319     1   0.1111   0.1111
[ bonds ]
13317 13320     1    0.153   186188    0.153   186188
[ constraints ] ; from mdp
13320 13321     1   0.1111   0.1111
[ constraints ] ; from mdp
13320 13322     1   0.1111   0.1111
[ bonds ]
13320 13323     1    0.153   186188    0.153   186188
[ constraints ] ; from mdp
13323 13324     1   0.1111   0.1111
[ constraints ] ; from mdp
13323 13325     1   0.1111   0.1111
[ bonds ]
13323 13326     1    0.153   186188    0.153   186188
[ constraints ] ; from mdp
13326 13327     1   0.1111   0.1111
[ constraints ] ; from mdp
13326 13328     1   0.1111   0.1111
[ bonds ]
13326 13329     1    0.153   186188    0.153   186188
[ constraints ] ; from mdp
13329 13330     1   0.1111   0.1111
[ constraints ] ; from mdp
13329 13331     1   0.1111   0.1111
[ bonds ]
13329 13332     1    0.153   186188    0.153   186188
[ constraints ] ; from mdp
13332 13333     1   0.1111   0.1111
[ constraints ] ; from mdp
13332 13334     1   0.1111   0.1111
[ bonds ]
13332 13335     1    0.153   186188    0.153   186188
[ constraints ] ; from mdp
13335 13336     1   0.1111   0.1111
[ constraints ] ; from mdp
13335 13337     1   0.1111   0.1111
[ bonds ]
13335 13338     1    0.153   186188    0.153   186188
[ constraints ] ; from mdp
13338 13339     1   0.1111   0.1111
[ constraints ] ; from mdp
13338 13340     1   0.1111   0.1111
[ bonds ]
13338 13341     1    0.153   186188    0.153   186188
[ constraints ] ; from mdp
13341 13342     1   0.1111   0.1111
[ constraints ] ; from mdp
13341 13343     1   0.1111   0.1111
[ bonds ]
13341 13344     1   0.1528   186188   0.1528   186188
[ constraints ] ; from mdp
13344 13345     1   0.1111   0.1111
[ constraints ] ; from mdp
13344 13346     1   0.1111   0.1111
[ constraints ] ; from mdp
13344 13347     1   0.1111   0.1111
[ constraints ] ; from mdp
13348 13349     1   0.1111   0.1111
[ constraints ] ; from mdp
13348 13350     1   0.1111   0.1111
[ bonds ]
13348 13351     1    0.153   186188    0.153   186188
[ constraints ] ; from mdp
13351 13352     1   0.1111   0.1111
[ constraints ] ; from mdp
13351 13353     1   0.1111   0.1111
[ bonds ]
13351 13354     1    0.153   186188    0.153   186188
[ constraints ] ; from mdp
13354 13355     1   0.1111   0.1111
[ constraints ] ; from mdp
13354 13356     1   0.1111   0.1111
[ bonds ]
13354 13357     1    0.153   186188    0.153   186188
[ constraints ] ; from mdp
13357 13358     1   0.1111   0.1111
[ constraints ] ; from mdp
13357 13359     1   0.1111   0.1111
[ bonds ]
13357 13360     1    0.153   186188    0.153   186188
[ constraints ] ; from mdp
13360 13361     1   0.1111   0.1111
[ constraints ] ; from mdp
13360 13362     1   0.1111   0.1111
[ bonds ]
13360 13363     1    0.153   186188    0.153   186188
[ constraints ] ; from mdp
13363 13364     1   0.1111   0.1111
[ constraints ] ; from mdp
13363 13365     1   0.1111   0.1111
[ bonds ]
13363 13366     1    0.153   186188    0.153   186188
[ constraints ] ; from mdp
13366 13367     1   0.1111   0.1111
[ constraints ] ; from mdp
13366 13368     1   0.1111   0.1111
[ bonds ]
13366 13369     1    0.153   186188    0.153   186188
[ constraints ] ; from mdp
13369 13370     1   0.1111   0.1111
[ constraints ] ; from mdp
13369 13371     1   0.1111   0.1111
[ bonds ]
13369 13372     1    0.153   186188    0.153   186188
[ constraints ] ; from mdp
13372 13373     1   0.1111   0.1111
[ constraints ] ; from mdp
13372 13374     1   0.1111   0.1111
[ bonds ]
13372 13375     1    0.153   186188    0.153   186188
[ constraints ] ; from mdp
13375 13376     1   0.1111   0.1111
[ constraints ] ; from mdp
13375 13377     1   0.1111   0.1111
[ bonds ]
13375 13378     1    0.153   186188    0.153   186188
[ constraints ] ; from mdp
13378 13379     1   0.1111   0.1111
[ constraints ] ; from mdp
13378 13380     1   0.1111   0.1111
[ bonds ]
13378 13381     1    0.153   186188    0.153   186188
[ constraints ] ; from mdp
13381 13382     1   0.1111   0.1111
[ constraints ] ; from mdp
13381 13383     1   0.1111   0.1111
[ bonds ]
13381 13384     1    0.153   186188    0.153   186188
[ constraints ] ; from mdp
13384 13385     1   0.1111   0.1111
[ constraints ] ; from mdp
13384 13386     1   0.1111   0.1111
[ bonds ]
13384 13387     1   0.1528   186188   0.1528   186188
[ constraints ] ; from mdp
13387 13388     1   0.1111   0.1111
[ constraints ] ; from mdp
13387 13389     1   0.1111   0.1111
[ constraints ] ; from mdp
13387 13390     1   0.1111   0.1111
[ bonds ]
13391 13392     1    0.151   179912    0.151   179912
[ bonds ]
13391 13396     1    0.151   179912    0.151   179912
[ bonds ]
13391 13400     1    0.151   179912    0.151   179912
[ bonds ]
13391 13404     1    0.151   179912    0.151   179912
[ constraints ] ; from mdp
13392 13393     1    0.108    0.108
[ constraints ] ; from mdp
13392 13394     1    0.108    0.108
[ constraints ] ; from mdp
13392 13395     1    0.108    0.108
[ constraints ] ; from mdp
13396 13397     1    0.108    0.108
[ constraints ] ; from mdp
13396 13398     1    0.108    0.108
[ constraints ] ; from mdp
13396 13399     1    0.108    0.108
[ constraints ] ; from mdp
13400 13401     1    0.108    0.108
[ constraints ] ; from mdp
13400 13402     1    0.108    0.108
[ constraints ] ; from mdp
13400 13403     1    0.108    0.108
[ constraints ] ; from mdp
13404 13405     1    0.108    0.108
[ constraints ] ; from mdp
13404 13406     1    0.108    0.108
[ bonds ]
13404 13407     1    0.153   186188    0.153   186188
[ constraints ] ; from mdp
13407 13408     1   0.1111   0.1111
[ constraints ] ; from mdp
13407 13409     1   0.1111   0.1111
[ bonds ]
13407 13414     1    0.143   284512    0.143   284512
[ bonds ]
13410 13411     1    0.148   485344    0.148   485344
[ bonds ]
13410 13412     1    0.148   485344    0.148   485344
[ bonds ]
13410 13413     1     0.16   225936     0.16   225936
[ bonds ]
13410 13414     1     0.16   225936     0.16   225936
[ bonds ]
13413 13415     1    0.143   284512    0.143   284512
[ constraints ] ; from mdp
13415 13416     1   0.1111   0.1111
[ constraints ] ; from mdp
13415 13417     1   0.1111   0.1111
[ bonds ]
13415 13418     1   0.1538   186188   0.1538   186188
[ constraints ] ; from mdp
13418 13419     1   0.1111   0.1111
[ bonds ]
13418 13420     1    0.143   284512    0.143   284512
[ bonds ]
13418 13426     1   0.1538   186188   0.1538   186188
[ bonds ]
13420 13421     1   0.1334   125520   0.1334   125520
[ bonds ]
13421 13422     1    0.122   627600    0.122   627600
[ bonds ]
13421 13423     1   0.1522   167360   0.1522   167360
[ constraints ] ; from mdp
13423 13424     1   0.1111   0.1111
[ constraints ] ; from mdp
13423 13425     1   0.1111   0.1111
[ bonds ]
13423 13435     1    0.153   186188    0.153   186188
[ constraints ] ; from mdp
13426 13427     1   0.1111   0.1111
[ constraints ] ; from mdp
13426 13428     1   0.1111   0.1111
[ bonds ]
13426 13429     1    0.143   284512    0.143   284512
[ bonds ]
13429 13430     1   0.1334   125520   0.1334   125520
[ bonds ]
13430 13431     1    0.122   627600    0.122   627600
[ bonds ]
13430 13432     1   0.1522   167360   0.1522   167360
[ constraints ] ; from mdp
13432 13433     1   0.1111   0.1111
[ constraints ] ; from mdp
13432 13434     1   0.1111   0.1111
[ bonds ]
13432 13478     1    0.153   186188    0.153   186188
[ constraints ] ; from mdp
13435 13436     1   0.1111   0.1111
[ constraints ] ; from mdp
13435 13437     1   0.1111   0.1111
[ bonds ]
13435 13438     1    0.153   186188    0.153   186188
[ constraints ] ; from mdp
13438 13439     1   0.1111   0.1111
[ constraints ] ; from mdp
13438 13440     1   0.1111   0.1111
[ bonds ]
13438 13441     1    0.153   186188    0.153   186188
[ constraints ] ; from mdp
13441 13442     1   0.1111   0.1111
[ constraints ] ; from mdp
13441 13443     1   0.1111   0.1111
[ bonds ]
13441 13444     1    0.153   186188    0.153   186188
[ constraints ] ; from mdp
13444 13445     1   0.1111   0.1111
[ constraints ] ; from mdp
13444 13446     1   0.1111   0.1111
[ bonds ]
13444 13447     1    0.153   186188    0.153   186188
[ constraints ] ; from mdp
13447 13448     1   0.1111   0.1111
[ constraints ] ; from mdp
13447 13449     1   0.1111   0.1111
[ bonds ]
13447 13450     1    0.153   186188    0.153   186188
[ constraints ] ; from mdp
13450 13451     1   0.1111   0.1111
[ constraints ] ; from mdp
13450 13452     1   0.1111   0.1111
[ bonds ]
13450 13453     1    0.153   186188    0.153   186188
[ constraints ] ; from mdp
13453 13454     1   0.1111   0.1111
[ constraints ] ; from mdp
13453 13455     1   0.1111   0.1111
[ bonds ]
13453 13456     1    0.153   186188    0.153   186188
[ constraints ] ; from mdp
13456 13457     1   0.1111   0.1111
[ constraints ] ; from mdp
13456 13458     1   0.1111   0.1111
[ bonds ]
13456 13459     1    0.153   186188    0.153   186188
[ constraints ] ; from mdp
13459 13460     1   0.1111   0.1111
[ constraints ] ; from mdp
13459 13461     1   0.1111   0.1111
[ bonds ]
13459 13462     1    0.153   186188    0.153   186188
[ constraints ] ; from mdp
13462 13463     1   0.1111   0.1111
[ constraints ] ; from mdp
13462 13464     1   0.1111   0.1111
[ bonds ]
13462 13465     1    0.153   186188    0.153   186188
[ constraints ] ; from mdp
13465 13466     1   0.1111   0.1111
[ constraints ] ; from mdp
13465 13467     1   0.1111   0.1111
[ bonds ]
13465 13468     1    0.153   186188    0.153   186188
[ constraints ] ; from mdp
13468 13469     1   0.1111   0.1111
[ constraints ] ; from mdp
13468 13470     1   0.1111   0.1111
[ bonds ]
13468 13471     1    0.153   186188    0.153   186188
[ constraints ] ; from mdp
13471 13472     1   0.1111   0.1111
[ constraints ] ; from mdp
13471 13473     1   0.1111   0.1111
[ bonds ]
13471 13474     1   0.1528   186188   0.1528   186188
[ constraints ] ; from mdp
13474 13475     1   0.1111   0.1111
[ constraints ] ; from mdp
13474 13476     1   0.1111   0.1111
[ constraints ] ; from mdp
13474 13477     1   0.1111   0.1111
[ constraints ] ; from mdp
13478 13479     1   0.1111   0.1111
[ constraints ] ; from mdp
13478 13480     1   0.1111   0.1111
[ bonds ]
13478 13481     1    0.153   186188    0.153   186188
[ constraints ] ; from mdp
13481 13482     1   0.1111   0.1111
[ constraints ] ; from mdp
13481 13483     1   0.1111   0.1111
[ bonds ]
13481 13484     1    0.153   186188    0.153   186188
[ constraints ] ; from mdp
13484 13485     1   0.1111   0.1111
[ constraints ] ; from mdp
13484 13486     1   0.1111   0.1111
[ bonds ]
13484 13487     1    0.153   186188    0.153   186188
[ constraints ] ; from mdp
13487 13488     1   0.1111   0.1111
[ constraints ] ; from mdp
13487 13489     1   0.1111   0.1111
[ bonds ]
13487 13490     1    0.153   186188    0.153   186188
[ constraints ] ; from mdp
13490 13491     1   0.1111   0.1111
[ constraints ] ; from mdp
13490 13492     1   0.1111   0.1111
[ bonds ]
13490 13493     1    0.153   186188    0.153   186188
[ constraints ] ; from mdp
13493 13494     1   0.1111   0.1111
[ constraints ] ; from mdp
13493 13495     1   0.1111   0.1111
[ bonds ]
13493 13496     1    0.153   186188    0.153   186188
[ constraints ] ; from mdp
13496 13497     1   0.1111   0.1111
[ constraints ] ; from mdp
13496 13498     1   0.1111   0.1111
[ bonds ]
13496 13499     1    0.153   186188    0.153   186188
[ constraints ] ; from mdp
13499 13500     1   0.1111   0.1111
[ constraints ] ; from mdp
13499 13501     1   0.1111   0.1111
[ bonds ]
13499 13502     1    0.153   186188    0.153   186188
[ constraints ] ; from mdp
13502 13503     1   0.1111   0.1111
[ constraints ] ; from mdp
13502 13504     1   0.1111   0.1111
[ bonds ]
13502 13505     1    0.153   186188    0.153   186188
[ constraints ] ; from mdp
13505 13506     1   0.1111   0.1111
[ constraints ] ; from mdp
13505 13507     1   0.1111   0.1111
[ bonds ]
13505 13508     1    0.153   186188    0.153   186188
[ constraints ] ; from mdp
13508 13509     1   0.1111   0.1111
[ constraints ] ; from mdp
13508 13510     1   0.1111   0.1111
[ bonds ]
13508 13511     1    0.153   186188    0.153   186188
[ constraints ] ; from mdp
13511 13512     1   0.1111   0.1111
[ constraints ] ; from mdp
13511 13513     1   0.1111   0.1111
[ bonds ]
13511 13514     1    0.153   186188    0.153   186188
[ constraints ] ; from mdp
13514 13515     1   0.1111   0.1111
[ constraints ] ; from mdp
13514 13516     1   0.1111   0.1111
[ bonds ]
13514 13517     1   0.1528   186188   0.1528   186188
[ constraints ] ; from mdp
13517 13518     1   0.1111   0.1111
[ constraints ] ; from mdp
13517 13519     1   0.1111   0.1111
[ constraints ] ; from mdp
13517 13520     1   0.1111   0.1111
[ bonds ]
13521 13522     1    0.151   179912    0.151   179912
[ bonds ]
13521 13526     1    0.151   179912    0.151   179912
[ bonds ]
13521 13530     1    0.151   179912    0.151   179912
[ bonds ]
13521 13534     1    0.151   179912    0.151   179912
[ constraints ] ; from mdp
13522 13523     1    0.108    0.108
[ constraints ] ; from mdp
13522 13524     1    0.108    0.108
[ constraints ] ; from mdp
13522 13525     1    0.108    0.108
[ constraints ] ; from mdp
13526 13527     1    0.108    0.108
[ constraints ] ; from mdp
13526 13528     1    0.108    0.108
[ constraints ] ; from mdp
13526 13529     1    0.108    0.108
[ constraints ] ; from mdp
13530 13531     1    0.108    0.108
[ constraints ] ; from mdp
13530 13532     1    0.108    0.108
[ constraints ] ; from mdp
13530 13533     1    0.108    0.108
[ constraints ] ; from mdp
13534 13535     1    0.108    0.108
[ constraints ] ; from mdp
13534 13536     1    0.108    0.108
[ bonds ]
13534 13537     1    0.153   186188    0.153   186188
[ constraints ] ; from mdp
13537 13538     1   0.1111   0.1111
[ constraints ] ; from mdp
13537 13539     1   0.1111   0.1111
[ bonds ]
13537 13544     1    0.143   284512    0.143   284512
[ bonds ]
13540 13541     1    0.148   485344    0.148   485344
[ bonds ]
13540 13542     1    0.148   485344    0.148   485344
[ bonds ]
13540 13543     1     0.16   225936     0.16   225936
[ bonds ]
13540 13544     1     0.16   225936     0.16   225936
[ bonds ]
13543 13545     1    0.143   284512    0.143   284512
[ constraints ] ; from mdp
13545 13546     1   0.1111   0.1111
[ constraints ] ; from mdp
13545 13547     1   0.1111   0.1111
[ bonds ]
13545 13548     1   0.1538   186188   0.1538   186188
[ constraints ] ; from mdp
13548 13549     1   0.1111   0.1111
[ bonds ]
13548 13550     1    0.143   284512    0.143   284512
[ bonds ]
13548 13556     1   0.1538   186188   0.1538   186188
[ bonds ]
13550 13551     1   0.1334   125520   0.1334   125520
[ bonds ]
13551 13552     1    0.122   627600    0.122   627600
[ bonds ]
13551 13553     1   0.1522   167360   0.1522   167360
[ constraints ] ; from mdp
13553 13554     1   0.1111   0.1111
[ constraints ] ; from mdp
13553 13555     1   0.1111   0.1111
[ bonds ]
13553 13565     1    0.153   186188    0.153   186188
[ constraints ] ; from mdp
13556 13557     1   0.1111   0.1111
[ constraints ] ; from mdp
13556 13558     1   0.1111   0.1111
[ bonds ]
13556 13559     1    0.143   284512    0.143   284512
[ bonds ]
13559 13560     1   0.1334   125520   0.1334   125520
[ bonds ]
13560 13561     1    0.122   627600    0.122   627600
[ bonds ]
13560 13562     1   0.1522   167360   0.1522   167360
[ constraints ] ; from mdp
13562 13563     1   0.1111   0.1111
[ constraints ] ; from mdp
13562 13564     1   0.1111   0.1111
[ bonds ]
13562 13608     1    0.153   186188    0.153   186188
[ constraints ] ; from mdp
13565 13566     1   0.1111   0.1111
[ constraints ] ; from mdp
13565 13567     1   0.1111   0.1111
[ bonds ]
13565 13568     1    0.153   186188    0.153   186188
[ constraints ] ; from mdp
13568 13569     1   0.1111   0.1111
[ constraints ] ; from mdp
13568 13570     1   0.1111   0.1111
[ bonds ]
13568 13571     1    0.153   186188    0.153   186188
[ constraints ] ; from mdp
13571 13572     1   0.1111   0.1111
[ constraints ] ; from mdp
13571 13573     1   0.1111   0.1111
[ bonds ]
13571 13574     1    0.153   186188    0.153   186188
[ constraints ] ; from mdp
13574 13575     1   0.1111   0.1111
[ constraints ] ; from mdp
13574 13576     1   0.1111   0.1111
[ bonds ]
13574 13577     1    0.153   186188    0.153   186188
[ constraints ] ; from mdp
13577 13578     1   0.1111   0.1111
[ constraints ] ; from mdp
13577 13579     1   0.1111   0.1111
[ bonds ]
13577 13580     1    0.153   186188    0.153   186188
[ constraints ] ; from mdp
13580 13581     1   0.1111   0.1111
[ constraints ] ; from mdp
13580 13582     1   0.1111   0.1111
[ bonds ]
13580 13583     1    0.153   186188    0.153   186188
[ constraints ] ; from mdp
13583 13584     1   0.1111   0.1111
[ constraints ] ; from mdp
13583 13585     1   0.1111   0.1111
[ bonds ]
13583 13586     1    0.153   186188    0.153   186188
[ constraints ] ; from mdp
13586 13587     1   0.1111   0.1111
[ constraints ] ; from mdp
13586 13588     1   0.1111   0.1111
[ bonds ]
13586 13589     1    0.153   186188    0.153   186188
[ constraints ] ; from mdp
13589 13590     1   0.1111   0.1111
[ constraints ] ; from mdp
13589 13591     1   0.1111   0.1111
[ bonds ]
13589 13592     1    0.153   186188    0.153   186188
[ constraints ] ; from mdp
13592 13593     1   0.1111   0.1111
[ constraints ] ; from mdp
13592 13594     1   0.1111   0.1111
[ bonds ]
13592 13595     1    0.153   186188    0.153   186188
[ constraints ] ; from mdp
13595 13596     1   0.1111   0.1111
[ constraints ] ; from mdp
13595 13597     1   0.1111   0.1111
[ bonds ]
13595 13598     1    0.153   186188    0.153   186188
[ constraints ] ; from mdp
13598 13599     1   0.1111   0.1111
[ constraints ] ; from mdp
13598 13600     1   0.1111   0.1111
[ bonds ]
13598 13601     1    0.153   186188    0.153   186188
[ constraints ] ; from mdp
13601 13602     1   0.1111   0.1111
[ constraints ] ; from mdp
13601 13603     1   0.1111   0.1111
[ bonds ]
13601 13604     1   0.1528   186188   0.1528   186188
[ constraints ] ; from mdp
13604 13605     1   0.1111   0.1111
[ constraints ] ; from mdp
13604 13606     1   0.1111   0.1111
[ constraints ] ; from mdp
13604 13607     1   0.1111   0.1111
[ constraints ] ; from mdp
13608 13609     1   0.1111   0.1111
[ constraints ] ; from mdp
13608 13610     1   0.1111   0.1111
[ bonds ]
13608 13611     1    0.153   186188    0.153   186188
[ constraints ] ; from mdp
13611 13612     1   0.1111   0.1111
[ constraints ] ; from mdp
13611 13613     1   0.1111   0.1111
[ bonds ]
13611 13614     1    0.153   186188    0.153   186188
[ constraints ] ; from mdp
13614 13615     1   0.1111   0.1111
[ constraints ] ; from mdp
13614 13616     1   0.1111   0.1111
[ bonds ]
13614 13617     1    0.153   186188    0.153   186188
[ constraints ] ; from mdp
13617 13618     1   0.1111   0.1111
[ constraints ] ; from mdp
13617 13619     1   0.1111   0.1111
[ bonds ]
13617 13620     1    0.153   186188    0.153   186188
[ constraints ] ; from mdp
13620 13621     1   0.1111   0.1111
[ constraints ] ; from mdp
13620 13622     1   0.1111   0.1111
[ bonds ]
13620 13623     1    0.153   186188    0.153   186188
[ constraints ] ; from mdp
13623 13624     1   0.1111   0.1111
[ constraints ] ; from mdp
13623 13625     1   0.1111   0.1111
[ bonds ]
13623 13626     1    0.153   186188    0.153   186188
[ constraints ] ; from mdp
13626 13627     1   0.1111   0.1111
[ constraints ] ; from mdp
13626 13628     1   0.1111   0.1111
[ bonds ]
13626 13629     1    0.153   186188    0.153   186188
[ constraints ] ; from mdp
13629 13630     1   0.1111   0.1111
[ constraints ] ; from mdp
13629 13631     1   0.1111   0.1111
[ bonds ]
13629 13632     1    0.153   186188    0.153   186188
[ constraints ] ; from mdp
13632 13633     1   0.1111   0.1111
[ constraints ] ; from mdp
13632 13634     1   0.1111   0.1111
[ bonds ]
13632 13635     1    0.153   186188    0.153   186188
[ constraints ] ; from mdp
13635 13636     1   0.1111   0.1111
[ constraints ] ; from mdp
13635 13637     1   0.1111   0.1111
[ bonds ]
13635 13638     1    0.153   186188    0.153   186188
[ constraints ] ; from mdp
13638 13639     1   0.1111   0.1111
[ constraints ] ; from mdp
13638 13640     1   0.1111   0.1111
[ bonds ]
13638 13641     1    0.153   186188    0.153   186188
[ constraints ] ; from mdp
13641 13642     1   0.1111   0.1111
[ constraints ] ; from mdp
13641 13643     1   0.1111   0.1111
[ bonds ]
13641 13644     1    0.153   186188    0.153   186188
[ constraints ] ; from mdp
13644 13645     1   0.1111   0.1111
[ constraints ] ; from mdp
13644 13646     1   0.1111   0.1111
[ bonds ]
13644 13647     1   0.1528   186188   0.1528   186188
[ constraints ] ; from mdp
13647 13648     1   0.1111   0.1111
[ constraints ] ; from mdp
13647 13649     1   0.1111   0.1111
[ constraints ] ; from mdp
13647 13650     1   0.1111   0.1111
[ bonds ]
13651 13652     1    0.151   179912    0.151   179912
[ bonds ]
13651 13656     1    0.151   179912    0.151   179912
[ bonds ]
13651 13660     1    0.151   179912    0.151   179912
[ bonds ]
13651 13664     1    0.151   179912    0.151   179912
[ constraints ] ; from mdp
13652 13653     1    0.108    0.108
[ constraints ] ; from mdp
13652 13654     1    0.108    0.108
[ constraints ] ; from mdp
13652 13655     1    0.108    0.108
[ constraints ] ; from mdp
13656 13657     1    0.108    0.108
[ constraints ] ; from mdp
13656 13658     1    0.108    0.108
[ constraints ] ; from mdp
13656 13659     1    0.108    0.108
[ constraints ] ; from mdp
13660 13661     1    0.108    0.108
[ constraints ] ; from mdp
13660 13662     1    0.108    0.108
[ constraints ] ; from mdp
13660 13663     1    0.108    0.108
[ constraints ] ; from mdp
13664 13665     1    0.108    0.108
[ constraints ] ; from mdp
13664 13666     1    0.108    0.108
[ bonds ]
13664 13667     1    0.153   186188    0.153   186188
[ constraints ] ; from mdp
13667 13668     1   0.1111   0.1111
[ constraints ] ; from mdp
13667 13669     1   0.1111   0.1111
[ bonds ]
13667 13674     1    0.143   284512    0.143   284512
[ bonds ]
13670 13671     1    0.148   485344    0.148   485344
[ bonds ]
13670 13672     1    0.148   485344    0.148   485344
[ bonds ]
13670 13673     1     0.16   225936     0.16   225936
[ bonds ]
13670 13674     1     0.16   225936     0.16   225936
[ bonds ]
13673 13675     1    0.143   284512    0.143   284512
[ constraints ] ; from mdp
13675 13676     1   0.1111   0.1111
[ constraints ] ; from mdp
13675 13677     1   0.1111   0.1111
[ bonds ]
13675 13678     1   0.1538   186188   0.1538   186188
[ constraints ] ; from mdp
13678 13679     1   0.1111   0.1111
[ bonds ]
13678 13680     1    0.143   284512    0.143   284512
[ bonds ]
13678 13686     1   0.1538   186188   0.1538   186188
[ bonds ]
13680 13681     1   0.1334   125520   0.1334   125520
[ bonds ]
13681 13682     1    0.122   627600    0.122   627600
[ bonds ]
13681 13683     1   0.1522   167360   0.1522   167360
[ constraints ] ; from mdp
13683 13684     1   0.1111   0.1111
[ constraints ] ; from mdp
13683 13685     1   0.1111   0.1111
[ bonds ]
13683 13695     1    0.153   186188    0.153   186188
[ constraints ] ; from mdp
13686 13687     1   0.1111   0.1111
[ constraints ] ; from mdp
13686 13688     1   0.1111   0.1111
[ bonds ]
13686 13689     1    0.143   284512    0.143   284512
[ bonds ]
13689 13690     1   0.1334   125520   0.1334   125520
[ bonds ]
13690 13691     1    0.122   627600    0.122   627600
[ bonds ]
13690 13692     1   0.1522   167360   0.1522   167360
[ constraints ] ; from mdp
13692 13693     1   0.1111   0.1111
[ constraints ] ; from mdp
13692 13694     1   0.1111   0.1111
[ bonds ]
13692 13738     1    0.153   186188    0.153   186188
[ constraints ] ; from mdp
13695 13696     1   0.1111   0.1111
[ constraints ] ; from mdp
13695 13697     1   0.1111   0.1111
[ bonds ]
13695 13698     1    0.153   186188    0.153   186188
[ constraints ] ; from mdp
13698 13699     1   0.1111   0.1111
[ constraints ] ; from mdp
13698 13700     1   0.1111   0.1111
[ bonds ]
13698 13701     1    0.153   186188    0.153   186188
[ constraints ] ; from mdp
13701 13702     1   0.1111   0.1111
[ constraints ] ; from mdp
13701 13703     1   0.1111   0.1111
[ bonds ]
13701 13704     1    0.153   186188    0.153   186188
[ constraints ] ; from mdp
13704 13705     1   0.1111   0.1111
[ constraints ] ; from mdp
13704 13706     1   0.1111   0.1111
[ bonds ]
13704 13707     1    0.153   186188    0.153   186188
[ constraints ] ; from mdp
13707 13708     1   0.1111   0.1111
[ constraints ] ; from mdp
13707 13709     1   0.1111   0.1111
[ bonds ]
13707 13710     1    0.153   186188    0.153   186188
[ constraints ] ; from mdp
13710 13711     1   0.1111   0.1111
[ constraints ] ; from mdp
13710 13712     1   0.1111   0.1111
[ bonds ]
13710 13713     1    0.153   186188    0.153   186188
[ constraints ] ; from mdp
13713 13714     1   0.1111   0.1111
[ constraints ] ; from mdp
13713 13715     1   0.1111   0.1111
[ bonds ]
13713 13716     1    0.153   186188    0.153   186188
[ constraints ] ; from mdp
13716 13717     1   0.1111   0.1111
[ constraints ] ; from mdp
13716 13718     1   0.1111   0.1111
[ bonds ]
13716 13719     1    0.153   186188    0.153   186188
[ constraints ] ; from mdp
13719 13720     1   0.1111   0.1111
[ constraints ] ; from mdp
13719 13721     1   0.1111   0.1111
[ bonds ]
13719 13722     1    0.153   186188    0.153   186188
[ constraints ] ; from mdp
13722 13723     1   0.1111   0.1111
[ constraints ] ; from mdp
13722 13724     1   0.1111   0.1111
[ bonds ]
13722 13725     1    0.153   186188    0.153   186188
[ constraints ] ; from mdp
13725 13726     1   0.1111   0.1111
[ constraints ] ; from mdp
13725 13727     1   0.1111   0.1111
[ bonds ]
13725 13728     1    0.153   186188    0.153   186188
[ constraints ] ; from mdp
13728 13729     1   0.1111   0.1111
[ constraints ] ; from mdp
13728 13730     1   0.1111   0.1111
[ bonds ]
13728 13731     1    0.153   186188    0.153   186188
[ constraints ] ; from mdp
13731 13732     1   0.1111   0.1111
[ constraints ] ; from mdp
13731 13733     1   0.1111   0.1111
[ bonds ]
13731 13734     1   0.1528   186188   0.1528   186188
[ constraints ] ; from mdp
13734 13735     1   0.1111   0.1111
[ constraints ] ; from mdp
13734 13736     1   0.1111   0.1111
[ constraints ] ; from mdp
13734 13737     1   0.1111   0.1111
[ constraints ] ; from mdp
13738 13739     1   0.1111   0.1111
[ constraints ] ; from mdp
13738 13740     1   0.1111   0.1111
[ bonds ]
13738 13741     1    0.153   186188    0.153   186188
[ constraints ] ; from mdp
13741 13742     1   0.1111   0.1111
[ constraints ] ; from mdp
13741 13743     1   0.1111   0.1111
[ bonds ]
13741 13744     1    0.153   186188    0.153   186188
[ constraints ] ; from mdp
13744 13745     1   0.1111   0.1111
[ constraints ] ; from mdp
13744 13746     1   0.1111   0.1111
[ bonds ]
13744 13747     1    0.153   186188    0.153   186188
[ constraints ] ; from mdp
13747 13748     1   0.1111   0.1111
[ constraints ] ; from mdp
13747 13749     1   0.1111   0.1111
[ bonds ]
13747 13750     1    0.153   186188    0.153   186188
[ constraints ] ; from mdp
13750 13751     1   0.1111   0.1111
[ constraints ] ; from mdp
13750 13752     1   0.1111   0.1111
[ bonds ]
13750 13753     1    0.153   186188    0.153   186188
[ constraints ] ; from mdp
13753 13754     1   0.1111   0.1111
[ constraints ] ; from mdp
13753 13755     1   0.1111   0.1111
[ bonds ]
13753 13756     1    0.153   186188    0.153   186188
[ constraints ] ; from mdp
13756 13757     1   0.1111   0.1111
[ constraints ] ; from mdp
13756 13758     1   0.1111   0.1111
[ bonds ]
13756 13759     1    0.153   186188    0.153   186188
[ constraints ] ; from mdp
13759 13760     1   0.1111   0.1111
[ constraints ] ; from mdp
13759 13761     1   0.1111   0.1111
[ bonds ]
13759 13762     1    0.153   186188    0.153   186188
[ constraints ] ; from mdp
13762 13763     1   0.1111   0.1111
[ constraints ] ; from mdp
13762 13764     1   0.1111   0.1111
[ bonds ]
13762 13765     1    0.153   186188    0.153   186188
[ constraints ] ; from mdp
13765 13766     1   0.1111   0.1111
[ constraints ] ; from mdp
13765 13767     1   0.1111   0.1111
[ bonds ]
13765 13768     1    0.153   186188    0.153   186188
[ constraints ] ; from mdp
13768 13769     1   0.1111   0.1111
[ constraints ] ; from mdp
13768 13770     1   0.1111   0.1111
[ bonds ]
13768 13771     1    0.153   186188    0.153   186188
[ constraints ] ; from mdp
13771 13772     1   0.1111   0.1111
[ constraints ] ; from mdp
13771 13773     1   0.1111   0.1111
[ bonds ]
13771 13774     1    0.153   186188    0.153   186188
[ constraints ] ; from mdp
13774 13775     1   0.1111   0.1111
[ constraints ] ; from mdp
13774 13776     1   0.1111   0.1111
[ bonds ]
13774 13777     1   0.1528   186188   0.1528   186188
[ constraints ] ; from mdp
13777 13778     1   0.1111   0.1111
[ constraints ] ; from mdp
13777 13779     1   0.1111   0.1111
[ constraints ] ; from mdp
13777 13780     1   0.1111   0.1111
[ bonds ]
13781 13782     1    0.151   179912    0.151   179912
[ bonds ]
13781 13786     1    0.151   179912    0.151   179912
[ bonds ]
13781 13790     1    0.151   179912    0.151   179912
[ bonds ]
13781 13794     1    0.151   179912    0.151   179912
[ constraints ] ; from mdp
13782 13783     1    0.108    0.108
[ constraints ] ; from mdp
13782 13784     1    0.108    0.108
[ constraints ] ; from mdp
13782 13785     1    0.108    0.108
[ constraints ] ; from mdp
13786 13787     1    0.108    0.108
[ constraints ] ; from mdp
13786 13788     1    0.108    0.108
[ constraints ] ; from mdp
13786 13789     1    0.108    0.108
[ constraints ] ; from mdp
13790 13791     1    0.108    0.108
[ constraints ] ; from mdp
13790 13792     1    0.108    0.108
[ constraints ] ; from mdp
13790 13793     1    0.108    0.108
[ constraints ] ; from mdp
13794 13795     1    0.108    0.108
[ constraints ] ; from mdp
13794 13796     1    0.108    0.108
[ bonds ]
13794 13797     1    0.153   186188    0.153   186188
[ constraints ] ; from mdp
13797 13798     1   0.1111   0.1111
[ constraints ] ; from mdp
13797 13799     1   0.1111   0.1111
[ bonds ]
13797 13804     1    0.143   284512    0.143   284512
[ bonds ]
13800 13801     1    0.148   485344    0.148   485344
[ bonds ]
13800 13802     1    0.148   485344    0.148   485344
[ bonds ]
13800 13803     1     0.16   225936     0.16   225936
[ bonds ]
13800 13804     1     0.16   225936     0.16   225936
[ bonds ]
13803 13805     1    0.143   284512    0.143   284512
[ constraints ] ; from mdp
13805 13806     1   0.1111   0.1111
[ constraints ] ; from mdp
13805 13807     1   0.1111   0.1111
[ bonds ]
13805 13808     1   0.1538   186188   0.1538   186188
[ constraints ] ; from mdp
13808 13809     1   0.1111   0.1111
[ bonds ]
13808 13810     1    0.143   284512    0.143   284512
[ bonds ]
13808 13816     1   0.1538   186188   0.1538   186188
[ bonds ]
13810 13811     1   0.1334   125520   0.1334   125520
[ bonds ]
13811 13812     1    0.122   627600    0.122   627600
[ bonds ]
13811 13813     1   0.1522   167360   0.1522   167360
[ constraints ] ; from mdp
13813 13814     1   0.1111   0.1111
[ constraints ] ; from mdp
13813 13815     1   0.1111   0.1111
[ bonds ]
13813 13825     1    0.153   186188    0.153   186188
[ constraints ] ; from mdp
13816 13817     1   0.1111   0.1111
[ constraints ] ; from mdp
13816 13818     1   0.1111   0.1111
[ bonds ]
13816 13819     1    0.143   284512    0.143   284512
[ bonds ]
13819 13820     1   0.1334   125520   0.1334   125520
[ bonds ]
13820 13821     1    0.122   627600    0.122   627600
[ bonds ]
13820 13822     1   0.1522   167360   0.1522   167360
[ constraints ] ; from mdp
13822 13823     1   0.1111   0.1111
[ constraints ] ; from mdp
13822 13824     1   0.1111   0.1111
[ bonds ]
13822 13868     1    0.153   186188    0.153   186188
[ constraints ] ; from mdp
13825 13826     1   0.1111   0.1111
[ constraints ] ; from mdp
13825 13827     1   0.1111   0.1111
[ bonds ]
13825 13828     1    0.153   186188    0.153   186188
[ constraints ] ; from mdp
13828 13829     1   0.1111   0.1111
[ constraints ] ; from mdp
13828 13830     1   0.1111   0.1111
[ bonds ]
13828 13831     1    0.153   186188    0.153   186188
[ constraints ] ; from mdp
13831 13832     1   0.1111   0.1111
[ constraints ] ; from mdp
13831 13833     1   0.1111   0.1111
[ bonds ]
13831 13834     1    0.153   186188    0.153   186188
[ constraints ] ; from mdp
13834 13835     1   0.1111   0.1111
[ constraints ] ; from mdp
13834 13836     1   0.1111   0.1111
[ bonds ]
13834 13837     1    0.153   186188    0.153   186188
[ constraints ] ; from mdp
13837 13838     1   0.1111   0.1111
[ constraints ] ; from mdp
13837 13839     1   0.1111   0.1111
[ bonds ]
13837 13840     1    0.153   186188    0.153   186188
[ constraints ] ; from mdp
13840 13841     1   0.1111   0.1111
[ constraints ] ; from mdp
13840 13842     1   0.1111   0.1111
[ bonds ]
13840 13843     1    0.153   186188    0.153   186188
[ constraints ] ; from mdp
13843 13844     1   0.1111   0.1111
[ constraints ] ; from mdp
13843 13845     1   0.1111   0.1111
[ bonds ]
13843 13846     1    0.153   186188    0.153   186188
[ constraints ] ; from mdp
13846 13847     1   0.1111   0.1111
[ constraints ] ; from mdp
13846 13848     1   0.1111   0.1111
[ bonds ]
13846 13849     1    0.153   186188    0.153   186188
[ constraints ] ; from mdp
13849 13850     1   0.1111   0.1111
[ constraints ] ; from mdp
13849 13851     1   0.1111   0.1111
[ bonds ]
13849 13852     1    0.153   186188    0.153   186188
[ constraints ] ; from mdp
13852 13853     1   0.1111   0.1111
[ constraints ] ; from mdp
13852 13854     1   0.1111   0.1111
[ bonds ]
13852 13855     1    0.153   186188    0.153   186188
[ constraints ] ; from mdp
13855 13856     1   0.1111   0.1111
[ constraints ] ; from mdp
13855 13857     1   0.1111   0.1111
[ bonds ]
13855 13858     1    0.153   186188    0.153   186188
[ constraints ] ; from mdp
13858 13859     1   0.1111   0.1111
[ constraints ] ; from mdp
13858 13860     1   0.1111   0.1111
[ bonds ]
13858 13861     1    0.153   186188    0.153   186188
[ constraints ] ; from mdp
13861 13862     1   0.1111   0.1111
[ constraints ] ; from mdp
13861 13863     1   0.1111   0.1111
[ bonds ]
13861 13864     1   0.1528   186188   0.1528   186188
[ constraints ] ; from mdp
13864 13865     1   0.1111   0.1111
[ constraints ] ; from mdp
13864 13866     1   0.1111   0.1111
[ constraints ] ; from mdp
13864 13867     1   0.1111   0.1111
[ constraints ] ; from mdp
13868 13869     1   0.1111   0.1111
[ constraints ] ; from mdp
13868 13870     1   0.1111   0.1111
[ bonds ]
13868 13871     1    0.153   186188    0.153   186188
[ constraints ] ; from mdp
13871 13872     1   0.1111   0.1111
[ constraints ] ; from mdp
13871 13873     1   0.1111   0.1111
[ bonds ]
13871 13874     1    0.153   186188    0.153   186188
[ constraints ] ; from mdp
13874 13875     1   0.1111   0.1111
[ constraints ] ; from mdp
13874 13876     1   0.1111   0.1111
[ bonds ]
13874 13877     1    0.153   186188    0.153   186188
[ constraints ] ; from mdp
13877 13878     1   0.1111   0.1111
[ constraints ] ; from mdp
13877 13879     1   0.1111   0.1111
[ bonds ]
13877 13880     1    0.153   186188    0.153   186188
[ constraints ] ; from mdp
13880 13881     1   0.1111   0.1111
[ constraints ] ; from mdp
13880 13882     1   0.1111   0.1111
[ bonds ]
13880 13883     1    0.153   186188    0.153   186188
[ constraints ] ; from mdp
13883 13884     1   0.1111   0.1111
[ constraints ] ; from mdp
13883 13885     1   0.1111   0.1111
[ bonds ]
13883 13886     1    0.153   186188    0.153   186188
[ constraints ] ; from mdp
13886 13887     1   0.1111   0.1111
[ constraints ] ; from mdp
13886 13888     1   0.1111   0.1111
[ bonds ]
13886 13889     1    0.153   186188    0.153   186188
[ constraints ] ; from mdp
13889 13890     1   0.1111   0.1111
[ constraints ] ; from mdp
13889 13891     1   0.1111   0.1111
[ bonds ]
13889 13892     1    0.153   186188    0.153   186188
[ constraints ] ; from mdp
13892 13893     1   0.1111   0.1111
[ constraints ] ; from mdp
13892 13894     1   0.1111   0.1111
[ bonds ]
13892 13895     1    0.153   186188    0.153   186188
[ constraints ] ; from mdp
13895 13896     1   0.1111   0.1111
[ constraints ] ; from mdp
13895 13897     1   0.1111   0.1111
[ bonds ]
13895 13898     1    0.153   186188    0.153   186188
[ constraints ] ; from mdp
13898 13899     1   0.1111   0.1111
[ constraints ] ; from mdp
13898 13900     1   0.1111   0.1111
[ bonds ]
13898 13901     1    0.153   186188    0.153   186188
[ constraints ] ; from mdp
13901 13902     1   0.1111   0.1111
[ constraints ] ; from mdp
13901 13903     1   0.1111   0.1111
[ bonds ]
13901 13904     1    0.153   186188    0.153   186188
[ constraints ] ; from mdp
13904 13905     1   0.1111   0.1111
[ constraints ] ; from mdp
13904 13906     1   0.1111   0.1111
[ bonds ]
13904 13907     1   0.1528   186188   0.1528   186188
[ constraints ] ; from mdp
13907 13908     1   0.1111   0.1111
[ constraints ] ; from mdp
13907 13909     1   0.1111   0.1111
[ constraints ] ; from mdp
13907 13910     1   0.1111   0.1111
[ bonds ]
13911 13912     1    0.151   179912    0.151   179912
[ bonds ]
13911 13916     1    0.151   179912    0.151   179912
[ bonds ]
13911 13920     1    0.151   179912    0.151   179912
[ bonds ]
13911 13924     1    0.151   179912    0.151   179912
[ constraints ] ; from mdp
13912 13913     1    0.108    0.108
[ constraints ] ; from mdp
13912 13914     1    0.108    0.108
[ constraints ] ; from mdp
13912 13915     1    0.108    0.108
[ constraints ] ; from mdp
13916 13917     1    0.108    0.108
[ constraints ] ; from mdp
13916 13918     1    0.108    0.108
[ constraints ] ; from mdp
13916 13919     1    0.108    0.108
[ constraints ] ; from mdp
13920 13921     1    0.108    0.108
[ constraints ] ; from mdp
13920 13922     1    0.108    0.108
[ constraints ] ; from mdp
13920 13923     1    0.108    0.108
[ constraints ] ; from mdp
13924 13925     1    0.108    0.108
[ constraints ] ; from mdp
13924 13926     1    0.108    0.108
[ bonds ]
13924 13927     1    0.153   186188    0.153   186188
[ constraints ] ; from mdp
13927 13928     1   0.1111   0.1111
[ constraints ] ; from mdp
13927 13929     1   0.1111   0.1111
[ bonds ]
13927 13934     1    0.143   284512    0.143   284512
[ bonds ]
13930 13931     1    0.148   485344    0.148   485344
[ bonds ]
13930 13932     1    0.148   485344    0.148   485344
[ bonds ]
13930 13933     1     0.16   225936     0.16   225936
[ bonds ]
13930 13934     1     0.16   225936     0.16   225936
[ bonds ]
13933 13935     1    0.143   284512    0.143   284512
[ constraints ] ; from mdp
13935 13936     1   0.1111   0.1111
[ constraints ] ; from mdp
13935 13937     1   0.1111   0.1111
[ bonds ]
13935 13938     1   0.1538   186188   0.1538   186188
[ constraints ] ; from mdp
13938 13939     1   0.1111   0.1111
[ bonds ]
13938 13940     1    0.143   284512    0.143   284512
[ bonds ]
13938 13946     1   0.1538   186188   0.1538   186188
[ bonds ]
13940 13941     1   0.1334   125520   0.1334   125520
[ bonds ]
13941 13942     1    0.122   627600    0.122   627600
[ bonds ]
13941 13943     1   0.1522   167360   0.1522   167360
[ constraints ] ; from mdp
13943 13944     1   0.1111   0.1111
[ constraints ] ; from mdp
13943 13945     1   0.1111   0.1111
[ bonds ]
13943 13955     1    0.153   186188    0.153   186188
[ constraints ] ; from mdp
13946 13947     1   0.1111   0.1111
[ constraints ] ; from mdp
13946 13948     1   0.1111   0.1111
[ bonds ]
13946 13949     1    0.143   284512    0.143   284512
[ bonds ]
13949 13950     1   0.1334   125520   0.1334   125520
[ bonds ]
13950 13951     1    0.122   627600    0.122   627600
[ bonds ]
13950 13952     1   0.1522   167360   0.1522   167360
[ constraints ] ; from mdp
13952 13953     1   0.1111   0.1111
[ constraints ] ; from mdp
13952 13954     1   0.1111   0.1111
[ bonds ]
13952 13998     1    0.153   186188    0.153   186188
[ constraints ] ; from mdp
13955 13956     1   0.1111   0.1111
[ constraints ] ; from mdp
13955 13957     1   0.1111   0.1111
[ bonds ]
13955 13958     1    0.153   186188    0.153   186188
[ constraints ] ; from mdp
13958 13959     1   0.1111   0.1111
[ constraints ] ; from mdp
13958 13960     1   0.1111   0.1111
[ bonds ]
13958 13961     1    0.153   186188    0.153   186188
[ constraints ] ; from mdp
13961 13962     1   0.1111   0.1111
[ constraints ] ; from mdp
13961 13963     1   0.1111   0.1111
[ bonds ]
13961 13964     1    0.153   186188    0.153   186188
[ constraints ] ; from mdp
13964 13965     1   0.1111   0.1111
[ constraints ] ; from mdp
13964 13966     1   0.1111   0.1111
[ bonds ]
13964 13967     1    0.153   186188    0.153   186188
[ constraints ] ; from mdp
13967 13968     1   0.1111   0.1111
[ constraints ] ; from mdp
13967 13969     1   0.1111   0.1111
[ bonds ]
13967 13970     1    0.153   186188    0.153   186188
[ constraints ] ; from mdp
13970 13971     1   0.1111   0.1111
[ constraints ] ; from mdp
13970 13972     1   0.1111   0.1111
[ bonds ]
13970 13973     1    0.153   186188    0.153   186188
[ constraints ] ; from mdp
13973 13974     1   0.1111   0.1111
[ constraints ] ; from mdp
13973 13975     1   0.1111   0.1111
[ bonds ]
13973 13976     1    0.153   186188    0.153   186188
[ constraints ] ; from mdp
13976 13977     1   0.1111   0.1111
[ constraints ] ; from mdp
13976 13978     1   0.1111   0.1111
[ bonds ]
13976 13979     1    0.153   186188    0.153   186188
[ constraints ] ; from mdp
13979 13980     1   0.1111   0.1111
[ constraints ] ; from mdp
13979 13981     1   0.1111   0.1111
[ bonds ]
13979 13982     1    0.153   186188    0.153   186188
[ constraints ] ; from mdp
13982 13983     1   0.1111   0.1111
[ constraints ] ; from mdp
13982 13984     1   0.1111   0.1111
[ bonds ]
13982 13985     1    0.153   186188    0.153   186188
[ constraints ] ; from mdp
13985 13986     1   0.1111   0.1111
[ constraints ] ; from mdp
13985 13987     1   0.1111   0.1111
[ bonds ]
13985 13988     1    0.153   186188    0.153   186188
[ constraints ] ; from mdp
13988 13989     1   0.1111   0.1111
[ constraints ] ; from mdp
13988 13990     1   0.1111   0.1111
[ bonds ]
13988 13991     1    0.153   186188    0.153   186188
[ constraints ] ; from mdp
13991 13992     1   0.1111   0.1111
[ constraints ] ; from mdp
13991 13993     1   0.1111   0.1111
[ bonds ]
13991 13994     1   0.1528   186188   0.1528   186188
[ constraints ] ; from mdp
13994 13995     1   0.1111   0.1111
[ constraints ] ; from mdp
13994 13996     1   0.1111   0.1111
[ constraints ] ; from mdp
13994 13997     1   0.1111   0.1111
[ constraints ] ; from mdp
13998 13999     1   0.1111   0.1111
[ constraints ] ; from mdp
13998 14000     1   0.1111   0.1111
[ bonds ]
13998 14001     1    0.153   186188    0.153   186188
[ constraints ] ; from mdp
14001 14002     1   0.1111   0.1111
[ constraints ] ; from mdp
14001 14003     1   0.1111   0.1111
[ bonds ]
14001 14004     1    0.153   186188    0.153   186188
[ constraints ] ; from mdp
14004 14005     1   0.1111   0.1111
[ constraints ] ; from mdp
14004 14006     1   0.1111   0.1111
[ bonds ]
14004 14007     1    0.153   186188    0.153   186188
[ constraints ] ; from mdp
14007 14008     1   0.1111   0.1111
[ constraints ] ; from mdp
14007 14009     1   0.1111   0.1111
[ bonds ]
14007 14010     1    0.153   186188    0.153   186188
[ constraints ] ; from mdp
14010 14011     1   0.1111   0.1111
[ constraints ] ; from mdp
14010 14012     1   0.1111   0.1111
[ bonds ]
14010 14013     1    0.153   186188    0.153   186188
[ constraints ] ; from mdp
14013 14014     1   0.1111   0.1111
[ constraints ] ; from mdp
14013 14015     1   0.1111   0.1111
[ bonds ]
14013 14016     1    0.153   186188    0.153   186188
[ constraints ] ; from mdp
14016 14017     1   0.1111   0.1111
[ constraints ] ; from mdp
14016 14018     1   0.1111   0.1111
[ bonds ]
14016 14019     1    0.153   186188    0.153   186188
[ constraints ] ; from mdp
14019 14020     1   0.1111   0.1111
[ constraints ] ; from mdp
14019 14021     1   0.1111   0.1111
[ bonds ]
14019 14022     1    0.153   186188    0.153   186188
[ constraints ] ; from mdp
14022 14023     1   0.1111   0.1111
[ constraints ] ; from mdp
14022 14024     1   0.1111   0.1111
[ bonds ]
14022 14025     1    0.153   186188    0.153   186188
[ constraints ] ; from mdp
14025 14026     1   0.1111   0.1111
[ constraints ] ; from mdp
14025 14027     1   0.1111   0.1111
[ bonds ]
14025 14028     1    0.153   186188    0.153   186188
[ constraints ] ; from mdp
14028 14029     1   0.1111   0.1111
[ constraints ] ; from mdp
14028 14030     1   0.1111   0.1111
[ bonds ]
14028 14031     1    0.153   186188    0.153   186188
[ constraints ] ; from mdp
14031 14032     1   0.1111   0.1111
[ constraints ] ; from mdp
14031 14033     1   0.1111   0.1111
[ bonds ]
14031 14034     1    0.153   186188    0.153   186188
[ constraints ] ; from mdp
14034 14035     1   0.1111   0.1111
[ constraints ] ; from mdp
14034 14036     1   0.1111   0.1111
[ bonds ]
14034 14037     1   0.1528   186188   0.1528   186188
[ constraints ] ; from mdp
14037 14038     1   0.1111   0.1111
[ constraints ] ; from mdp
14037 14039     1   0.1111   0.1111
[ constraints ] ; from mdp
14037 14040     1   0.1111   0.1111
[ bonds ]
14041 14042     1    0.151   179912    0.151   179912
[ bonds ]
14041 14046     1    0.151   179912    0.151   179912
[ bonds ]
14041 14050     1    0.151   179912    0.151   179912
[ bonds ]
14041 14054     1    0.151   179912    0.151   179912
[ constraints ] ; from mdp
14042 14043     1    0.108    0.108
[ constraints ] ; from mdp
14042 14044     1    0.108    0.108
[ constraints ] ; from mdp
14042 14045     1    0.108    0.108
[ constraints ] ; from mdp
14046 14047     1    0.108    0.108
[ constraints ] ; from mdp
14046 14048     1    0.108    0.108
[ constraints ] ; from mdp
14046 14049     1    0.108    0.108
[ constraints ] ; from mdp
14050 14051     1    0.108    0.108
[ constraints ] ; from mdp
14050 14052     1    0.108    0.108
[ constraints ] ; from mdp
14050 14053     1    0.108    0.108
[ constraints ] ; from mdp
14054 14055     1    0.108    0.108
[ constraints ] ; from mdp
14054 14056     1    0.108    0.108
[ bonds ]
14054 14057     1    0.153   186188    0.153   186188
[ constraints ] ; from mdp
14057 14058     1   0.1111   0.1111
[ constraints ] ; from mdp
14057 14059     1   0.1111   0.1111
[ bonds ]
14057 14064     1    0.143   284512    0.143   284512
[ bonds ]
14060 14061     1    0.148   485344    0.148   485344
[ bonds ]
14060 14062     1    0.148   485344    0.148   485344
[ bonds ]
14060 14063     1     0.16   225936     0.16   225936
[ bonds ]
14060 14064     1     0.16   225936     0.16   225936
[ bonds ]
14063 14065     1    0.143   284512    0.143   284512
[ constraints ] ; from mdp
14065 14066     1   0.1111   0.1111
[ constraints ] ; from mdp
14065 14067     1   0.1111   0.1111
[ bonds ]
14065 14068     1   0.1538   186188   0.1538   186188
[ constraints ] ; from mdp
14068 14069     1   0.1111   0.1111
[ bonds ]
14068 14070     1    0.143   284512    0.143   284512
[ bonds ]
14068 14076     1   0.1538   186188   0.1538   186188
[ bonds ]
14070 14071     1   0.1334   125520   0.1334   125520
[ bonds ]
14071 14072     1    0.122   627600    0.122   627600
[ bonds ]
14071 14073     1   0.1522   167360   0.1522   167360
[ constraints ] ; from mdp
14073 14074     1   0.1111   0.1111
[ constraints ] ; from mdp
14073 14075     1   0.1111   0.1111
[ bonds ]
14073 14085     1    0.153   186188    0.153   186188
[ constraints ] ; from mdp
14076 14077     1   0.1111   0.1111
[ constraints ] ; from mdp
14076 14078     1   0.1111   0.1111
[ bonds ]
14076 14079     1    0.143   284512    0.143   284512
[ bonds ]
14079 14080     1   0.1334   125520   0.1334   125520
[ bonds ]
14080 14081     1    0.122   627600    0.122   627600
[ bonds ]
14080 14082     1   0.1522   167360   0.1522   167360
[ constraints ] ; from mdp
14082 14083     1   0.1111   0.1111
[ constraints ] ; from mdp
14082 14084     1   0.1111   0.1111
[ bonds ]
14082 14128     1    0.153   186188    0.153   186188
[ constraints ] ; from mdp
14085 14086     1   0.1111   0.1111
[ constraints ] ; from mdp
14085 14087     1   0.1111   0.1111
[ bonds ]
14085 14088     1    0.153   186188    0.153   186188
[ constraints ] ; from mdp
14088 14089     1   0.1111   0.1111
[ constraints ] ; from mdp
14088 14090     1   0.1111   0.1111
[ bonds ]
14088 14091     1    0.153   186188    0.153   186188
[ constraints ] ; from mdp
14091 14092     1   0.1111   0.1111
[ constraints ] ; from mdp
14091 14093     1   0.1111   0.1111
[ bonds ]
14091 14094     1    0.153   186188    0.153   186188
[ constraints ] ; from mdp
14094 14095     1   0.1111   0.1111
[ constraints ] ; from mdp
14094 14096     1   0.1111   0.1111
[ bonds ]
14094 14097     1    0.153   186188    0.153   186188
[ constraints ] ; from mdp
14097 14098     1   0.1111   0.1111
[ constraints ] ; from mdp
14097 14099     1   0.1111   0.1111
[ bonds ]
14097 14100     1    0.153   186188    0.153   186188
[ constraints ] ; from mdp
14100 14101     1   0.1111   0.1111
[ constraints ] ; from mdp
14100 14102     1   0.1111   0.1111
[ bonds ]
14100 14103     1    0.153   186188    0.153   186188
[ constraints ] ; from mdp
14103 14104     1   0.1111   0.1111
[ constraints ] ; from mdp
14103 14105     1   0.1111   0.1111
[ bonds ]
14103 14106     1    0.153   186188    0.153   186188
[ constraints ] ; from mdp
14106 14107     1   0.1111   0.1111
[ constraints ] ; from mdp
14106 14108     1   0.1111   0.1111
[ bonds ]
14106 14109     1    0.153   186188    0.153   186188
[ constraints ] ; from mdp
14109 14110     1   0.1111   0.1111
[ constraints ] ; from mdp
14109 14111     1   0.1111   0.1111
[ bonds ]
14109 14112     1    0.153   186188    0.153   186188
[ constraints ] ; from mdp
14112 14113     1   0.1111   0.1111
[ constraints ] ; from mdp
14112 14114     1   0.1111   0.1111
[ bonds ]
14112 14115     1    0.153   186188    0.153   186188
[ constraints ] ; from mdp
14115 14116     1   0.1111   0.1111
[ constraints ] ; from mdp
14115 14117     1   0.1111   0.1111
[ bonds ]
14115 14118     1    0.153   186188    0.153   186188
[ constraints ] ; from mdp
14118 14119     1   0.1111   0.1111
[ constraints ] ; from mdp
14118 14120     1   0.1111   0.1111
[ bonds ]
14118 14121     1    0.153   186188    0.153   186188
[ constraints ] ; from mdp
14121 14122     1   0.1111   0.1111
[ constraints ] ; from mdp
14121 14123     1   0.1111   0.1111
[ bonds ]
14121 14124     1   0.1528   186188   0.1528   186188
[ constraints ] ; from mdp
14124 14125     1   0.1111   0.1111
[ constraints ] ; from mdp
14124 14126     1   0.1111   0.1111
[ constraints ] ; from mdp
14124 14127     1   0.1111   0.1111
[ constraints ] ; from mdp
14128 14129     1   0.1111   0.1111
[ constraints ] ; from mdp
14128 14130     1   0.1111   0.1111
[ bonds ]
14128 14131     1    0.153   186188    0.153   186188
[ constraints ] ; from mdp
14131 14132     1   0.1111   0.1111
[ constraints ] ; from mdp
14131 14133     1   0.1111   0.1111
[ bonds ]
14131 14134     1    0.153   186188    0.153   186188
[ constraints ] ; from mdp
14134 14135     1   0.1111   0.1111
[ constraints ] ; from mdp
14134 14136     1   0.1111   0.1111
[ bonds ]
14134 14137     1    0.153   186188    0.153   186188
[ constraints ] ; from mdp
14137 14138     1   0.1111   0.1111
[ constraints ] ; from mdp
14137 14139     1   0.1111   0.1111
[ bonds ]
14137 14140     1    0.153   186188    0.153   186188
[ constraints ] ; from mdp
14140 14141     1   0.1111   0.1111
[ constraints ] ; from mdp
14140 14142     1   0.1111   0.1111
[ bonds ]
14140 14143     1    0.153   186188    0.153   186188
[ constraints ] ; from mdp
14143 14144     1   0.1111   0.1111
[ constraints ] ; from mdp
14143 14145     1   0.1111   0.1111
[ bonds ]
14143 14146     1    0.153   186188    0.153   186188
[ constraints ] ; from mdp
14146 14147     1   0.1111   0.1111
[ constraints ] ; from mdp
14146 14148     1   0.1111   0.1111
[ bonds ]
14146 14149     1    0.153   186188    0.153   186188
[ constraints ] ; from mdp
14149 14150     1   0.1111   0.1111
[ constraints ] ; from mdp
14149 14151     1   0.1111   0.1111
[ bonds ]
14149 14152     1    0.153   186188    0.153   186188
[ constraints ] ; from mdp
14152 14153     1   0.1111   0.1111
[ constraints ] ; from mdp
14152 14154     1   0.1111   0.1111
[ bonds ]
14152 14155     1    0.153   186188    0.153   186188
[ constraints ] ; from mdp
14155 14156     1   0.1111   0.1111
[ constraints ] ; from mdp
14155 14157     1   0.1111   0.1111
[ bonds ]
14155 14158     1    0.153   186188    0.153   186188
[ constraints ] ; from mdp
14158 14159     1   0.1111   0.1111
[ constraints ] ; from mdp
14158 14160     1   0.1111   0.1111
[ bonds ]
14158 14161     1    0.153   186188    0.153   186188
[ constraints ] ; from mdp
14161 14162     1   0.1111   0.1111
[ constraints ] ; from mdp
14161 14163     1   0.1111   0.1111
[ bonds ]
14161 14164     1    0.153   186188    0.153   186188
[ constraints ] ; from mdp
14164 14165     1   0.1111   0.1111
[ constraints ] ; from mdp
14164 14166     1   0.1111   0.1111
[ bonds ]
14164 14167     1   0.1528   186188   0.1528   186188
[ constraints ] ; from mdp
14167 14168     1   0.1111   0.1111
[ constraints ] ; from mdp
14167 14169     1   0.1111   0.1111
[ constraints ] ; from mdp
14167 14170     1   0.1111   0.1111
[ bonds ]
14171 14172     1    0.151   179912    0.151   179912
[ bonds ]
14171 14176     1    0.151   179912    0.151   179912
[ bonds ]
14171 14180     1    0.151   179912    0.151   179912
[ bonds ]
14171 14184     1    0.151   179912    0.151   179912
[ constraints ] ; from mdp
14172 14173     1    0.108    0.108
[ constraints ] ; from mdp
14172 14174     1    0.108    0.108
[ constraints ] ; from mdp
14172 14175     1    0.108    0.108
[ constraints ] ; from mdp
14176 14177     1    0.108    0.108
[ constraints ] ; from mdp
14176 14178     1    0.108    0.108
[ constraints ] ; from mdp
14176 14179     1    0.108    0.108
[ constraints ] ; from mdp
14180 14181     1    0.108    0.108
[ constraints ] ; from mdp
14180 14182     1    0.108    0.108
[ constraints ] ; from mdp
14180 14183     1    0.108    0.108
[ constraints ] ; from mdp
14184 14185     1    0.108    0.108
[ constraints ] ; from mdp
14184 14186     1    0.108    0.108
[ bonds ]
14184 14187     1    0.153   186188    0.153   186188
[ constraints ] ; from mdp
14187 14188     1   0.1111   0.1111
[ constraints ] ; from mdp
14187 14189     1   0.1111   0.1111
[ bonds ]
14187 14194     1    0.143   284512    0.143   284512
[ bonds ]
14190 14191     1    0.148   485344    0.148   485344
[ bonds ]
14190 14192     1    0.148   485344    0.148   485344
[ bonds ]
14190 14193     1     0.16   225936     0.16   225936
[ bonds ]
14190 14194     1     0.16   225936     0.16   225936
[ bonds ]
14193 14195     1    0.143   284512    0.143   284512
[ constraints ] ; from mdp
14195 14196     1   0.1111   0.1111
[ constraints ] ; from mdp
14195 14197     1   0.1111   0.1111
[ bonds ]
14195 14198     1   0.1538   186188   0.1538   186188
[ constraints ] ; from mdp
14198 14199     1   0.1111   0.1111
[ bonds ]
14198 14200     1    0.143   284512    0.143   284512
[ bonds ]
14198 14206     1   0.1538   186188   0.1538   186188
[ bonds ]
14200 14201     1   0.1334   125520   0.1334   125520
[ bonds ]
14201 14202     1    0.122   627600    0.122   627600
[ bonds ]
14201 14203     1   0.1522   167360   0.1522   167360
[ constraints ] ; from mdp
14203 14204     1   0.1111   0.1111
[ constraints ] ; from mdp
14203 14205     1   0.1111   0.1111
[ bonds ]
14203 14215     1    0.153   186188    0.153   186188
[ constraints ] ; from mdp
14206 14207     1   0.1111   0.1111
[ constraints ] ; from mdp
14206 14208     1   0.1111   0.1111
[ bonds ]
14206 14209     1    0.143   284512    0.143   284512
[ bonds ]
14209 14210     1   0.1334   125520   0.1334   125520
[ bonds ]
14210 14211     1    0.122   627600    0.122   627600
[ bonds ]
14210 14212     1   0.1522   167360   0.1522   167360
[ constraints ] ; from mdp
14212 14213     1   0.1111   0.1111
[ constraints ] ; from mdp
14212 14214     1   0.1111   0.1111
[ bonds ]
14212 14258     1    0.153   186188    0.153   186188
[ constraints ] ; from mdp
14215 14216     1   0.1111   0.1111
[ constraints ] ; from mdp
14215 14217     1   0.1111   0.1111
[ bonds ]
14215 14218     1    0.153   186188    0.153   186188
[ constraints ] ; from mdp
14218 14219     1   0.1111   0.1111
[ constraints ] ; from mdp
14218 14220     1   0.1111   0.1111
[ bonds ]
14218 14221     1    0.153   186188    0.153   186188
[ constraints ] ; from mdp
14221 14222     1   0.1111   0.1111
[ constraints ] ; from mdp
14221 14223     1   0.1111   0.1111
[ bonds ]
14221 14224     1    0.153   186188    0.153   186188
[ constraints ] ; from mdp
14224 14225     1   0.1111   0.1111
[ constraints ] ; from mdp
14224 14226     1   0.1111   0.1111
[ bonds ]
14224 14227     1    0.153   186188    0.153   186188
[ constraints ] ; from mdp
14227 14228     1   0.1111   0.1111
[ constraints ] ; from mdp
14227 14229     1   0.1111   0.1111
[ bonds ]
14227 14230     1    0.153   186188    0.153   186188
[ constraints ] ; from mdp
14230 14231     1   0.1111   0.1111
[ constraints ] ; from mdp
14230 14232     1   0.1111   0.1111
[ bonds ]
14230 14233     1    0.153   186188    0.153   186188
[ constraints ] ; from mdp
14233 14234     1   0.1111   0.1111
[ constraints ] ; from mdp
14233 14235     1   0.1111   0.1111
[ bonds ]
14233 14236     1    0.153   186188    0.153   186188
[ constraints ] ; from mdp
14236 14237     1   0.1111   0.1111
[ constraints ] ; from mdp
14236 14238     1   0.1111   0.1111
[ bonds ]
14236 14239     1    0.153   186188    0.153   186188
[ constraints ] ; from mdp
14239 14240     1   0.1111   0.1111
[ constraints ] ; from mdp
14239 14241     1   0.1111   0.1111
[ bonds ]
14239 14242     1    0.153   186188    0.153   186188
[ constraints ] ; from mdp
14242 14243     1   0.1111   0.1111
[ constraints ] ; from mdp
14242 14244     1   0.1111   0.1111
[ bonds ]
14242 14245     1    0.153   186188    0.153   186188
[ constraints ] ; from mdp
14245 14246     1   0.1111   0.1111
[ constraints ] ; from mdp
14245 14247     1   0.1111   0.1111
[ bonds ]
14245 14248     1    0.153   186188    0.153   186188
[ constraints ] ; from mdp
14248 14249     1   0.1111   0.1111
[ constraints ] ; from mdp
14248 14250     1   0.1111   0.1111
[ bonds ]
14248 14251     1    0.153   186188    0.153   186188
[ constraints ] ; from mdp
14251 14252     1   0.1111   0.1111
[ constraints ] ; from mdp
14251 14253     1   0.1111   0.1111
[ bonds ]
14251 14254     1   0.1528   186188   0.1528   186188
[ constraints ] ; from mdp
14254 14255     1   0.1111   0.1111
[ constraints ] ; from mdp
14254 14256     1   0.1111   0.1111
[ constraints ] ; from mdp
14254 14257     1   0.1111   0.1111
[ constraints ] ; from mdp
14258 14259     1   0.1111   0.1111
[ constraints ] ; from mdp
14258 14260     1   0.1111   0.1111
[ bonds ]
14258 14261     1    0.153   186188    0.153   186188
[ constraints ] ; from mdp
14261 14262     1   0.1111   0.1111
[ constraints ] ; from mdp
14261 14263     1   0.1111   0.1111
[ bonds ]
14261 14264     1    0.153   186188    0.153   186188
[ constraints ] ; from mdp
14264 14265     1   0.1111   0.1111
[ constraints ] ; from mdp
14264 14266     1   0.1111   0.1111
[ bonds ]
14264 14267     1    0.153   186188    0.153   186188
[ constraints ] ; from mdp
14267 14268     1   0.1111   0.1111
[ constraints ] ; from mdp
14267 14269     1   0.1111   0.1111
[ bonds ]
14267 14270     1    0.153   186188    0.153   186188
[ constraints ] ; from mdp
14270 14271     1   0.1111   0.1111
[ constraints ] ; from mdp
14270 14272     1   0.1111   0.1111
[ bonds ]
14270 14273     1    0.153   186188    0.153   186188
[ constraints ] ; from mdp
14273 14274     1   0.1111   0.1111
[ constraints ] ; from mdp
14273 14275     1   0.1111   0.1111
[ bonds ]
14273 14276     1    0.153   186188    0.153   186188
[ constraints ] ; from mdp
14276 14277     1   0.1111   0.1111
[ constraints ] ; from mdp
14276 14278     1   0.1111   0.1111
[ bonds ]
14276 14279     1    0.153   186188    0.153   186188
[ constraints ] ; from mdp
14279 14280     1   0.1111   0.1111
[ constraints ] ; from mdp
14279 14281     1   0.1111   0.1111
[ bonds ]
14279 14282     1    0.153   186188    0.153   186188
[ constraints ] ; from mdp
14282 14283     1   0.1111   0.1111
[ constraints ] ; from mdp
14282 14284     1   0.1111   0.1111
[ bonds ]
14282 14285     1    0.153   186188    0.153   186188
[ constraints ] ; from mdp
14285 14286     1   0.1111   0.1111
[ constraints ] ; from mdp
14285 14287     1   0.1111   0.1111
[ bonds ]
14285 14288     1    0.153   186188    0.153   186188
[ constraints ] ; from mdp
14288 14289     1   0.1111   0.1111
[ constraints ] ; from mdp
14288 14290     1   0.1111   0.1111
[ bonds ]
14288 14291     1    0.153   186188    0.153   186188
[ constraints ] ; from mdp
14291 14292     1   0.1111   0.1111
[ constraints ] ; from mdp
14291 14293     1   0.1111   0.1111
[ bonds ]
14291 14294     1    0.153   186188    0.153   186188
[ constraints ] ; from mdp
14294 14295     1   0.1111   0.1111
[ constraints ] ; from mdp
14294 14296     1   0.1111   0.1111
[ bonds ]
14294 14297     1   0.1528   186188   0.1528   186188
[ constraints ] ; from mdp
14297 14298     1   0.1111   0.1111
[ constraints ] ; from mdp
14297 14299     1   0.1111   0.1111
[ constraints ] ; from mdp
14297 14300     1   0.1111   0.1111
[ bonds ]
14301 14302     1    0.151   179912    0.151   179912
[ bonds ]
14301 14306     1    0.151   179912    0.151   179912
[ bonds ]
14301 14310     1    0.151   179912    0.151   179912
[ bonds ]
14301 14314     1    0.151   179912    0.151   179912
[ constraints ] ; from mdp
14302 14303     1    0.108    0.108
[ constraints ] ; from mdp
14302 14304     1    0.108    0.108
[ constraints ] ; from mdp
14302 14305     1    0.108    0.108
[ constraints ] ; from mdp
14306 14307     1    0.108    0.108
[ constraints ] ; from mdp
14306 14308     1    0.108    0.108
[ constraints ] ; from mdp
14306 14309     1    0.108    0.108
[ constraints ] ; from mdp
14310 14311     1    0.108    0.108
[ constraints ] ; from mdp
14310 14312     1    0.108    0.108
[ constraints ] ; from mdp
14310 14313     1    0.108    0.108
[ constraints ] ; from mdp
14314 14315     1    0.108    0.108
[ constraints ] ; from mdp
14314 14316     1    0.108    0.108
[ bonds ]
14314 14317     1    0.153   186188    0.153   186188
[ constraints ] ; from mdp
14317 14318     1   0.1111   0.1111
[ constraints ] ; from mdp
14317 14319     1   0.1111   0.1111
[ bonds ]
14317 14324     1    0.143   284512    0.143   284512
[ bonds ]
14320 14321     1    0.148   485344    0.148   485344
[ bonds ]
14320 14322     1    0.148   485344    0.148   485344
[ bonds ]
14320 14323     1     0.16   225936     0.16   225936
[ bonds ]
14320 14324     1     0.16   225936     0.16   225936
[ bonds ]
14323 14325     1    0.143   284512    0.143   284512
[ constraints ] ; from mdp
14325 14326     1   0.1111   0.1111
[ constraints ] ; from mdp
14325 14327     1   0.1111   0.1111
[ bonds ]
14325 14328     1   0.1538   186188   0.1538   186188
[ constraints ] ; from mdp
14328 14329     1   0.1111   0.1111
[ bonds ]
14328 14330     1    0.143   284512    0.143   284512
[ bonds ]
14328 14336     1   0.1538   186188   0.1538   186188
[ bonds ]
14330 14331     1   0.1334   125520   0.1334   125520
[ bonds ]
14331 14332     1    0.122   627600    0.122   627600
[ bonds ]
14331 14333     1   0.1522   167360   0.1522   167360
[ constraints ] ; from mdp
14333 14334     1   0.1111   0.1111
[ constraints ] ; from mdp
14333 14335     1   0.1111   0.1111
[ bonds ]
14333 14345     1    0.153   186188    0.153   186188
[ constraints ] ; from mdp
14336 14337     1   0.1111   0.1111
[ constraints ] ; from mdp
14336 14338     1   0.1111   0.1111
[ bonds ]
14336 14339     1    0.143   284512    0.143   284512
[ bonds ]
14339 14340     1   0.1334   125520   0.1334   125520
[ bonds ]
14340 14341     1    0.122   627600    0.122   627600
[ bonds ]
14340 14342     1   0.1522   167360   0.1522   167360
[ constraints ] ; from mdp
14342 14343     1   0.1111   0.1111
[ constraints ] ; from mdp
14342 14344     1   0.1111   0.1111
[ bonds ]
14342 14388     1    0.153   186188    0.153   186188
[ constraints ] ; from mdp
14345 14346     1   0.1111   0.1111
[ constraints ] ; from mdp
14345 14347     1   0.1111   0.1111
[ bonds ]
14345 14348     1    0.153   186188    0.153   186188
[ constraints ] ; from mdp
14348 14349     1   0.1111   0.1111
[ constraints ] ; from mdp
14348 14350     1   0.1111   0.1111
[ bonds ]
14348 14351     1    0.153   186188    0.153   186188
[ constraints ] ; from mdp
14351 14352     1   0.1111   0.1111
[ constraints ] ; from mdp
14351 14353     1   0.1111   0.1111
[ bonds ]
14351 14354     1    0.153   186188    0.153   186188
[ constraints ] ; from mdp
14354 14355     1   0.1111   0.1111
[ constraints ] ; from mdp
14354 14356     1   0.1111   0.1111
[ bonds ]
14354 14357     1    0.153   186188    0.153   186188
[ constraints ] ; from mdp
14357 14358     1   0.1111   0.1111
[ constraints ] ; from mdp
14357 14359     1   0.1111   0.1111
[ bonds ]
14357 14360     1    0.153   186188    0.153   186188
[ constraints ] ; from mdp
14360 14361     1   0.1111   0.1111
[ constraints ] ; from mdp
14360 14362     1   0.1111   0.1111
[ bonds ]
14360 14363     1    0.153   186188    0.153   186188
[ constraints ] ; from mdp
14363 14364     1   0.1111   0.1111
[ constraints ] ; from mdp
14363 14365     1   0.1111   0.1111
[ bonds ]
14363 14366     1    0.153   186188    0.153   186188
[ constraints ] ; from mdp
14366 14367     1   0.1111   0.1111
[ constraints ] ; from mdp
14366 14368     1   0.1111   0.1111
[ bonds ]
14366 14369     1    0.153   186188    0.153   186188
[ constraints ] ; from mdp
14369 14370     1   0.1111   0.1111
[ constraints ] ; from mdp
14369 14371     1   0.1111   0.1111
[ bonds ]
14369 14372     1    0.153   186188    0.153   186188
[ constraints ] ; from mdp
14372 14373     1   0.1111   0.1111
[ constraints ] ; from mdp
14372 14374     1   0.1111   0.1111
[ bonds ]
14372 14375     1    0.153   186188    0.153   186188
[ constraints ] ; from mdp
14375 14376     1   0.1111   0.1111
[ constraints ] ; from mdp
14375 14377     1   0.1111   0.1111
[ bonds ]
14375 14378     1    0.153   186188    0.153   186188
[ constraints ] ; from mdp
14378 14379     1   0.1111   0.1111
[ constraints ] ; from mdp
14378 14380     1   0.1111   0.1111
[ bonds ]
14378 14381     1    0.153   186188    0.153   186188
[ constraints ] ; from mdp
14381 14382     1   0.1111   0.1111
[ constraints ] ; from mdp
14381 14383     1   0.1111   0.1111
[ bonds ]
14381 14384     1   0.1528   186188   0.1528   186188
[ constraints ] ; from mdp
14384 14385     1   0.1111   0.1111
[ constraints ] ; from mdp
14384 14386     1   0.1111   0.1111
[ constraints ] ; from mdp
14384 14387     1   0.1111   0.1111
[ constraints ] ; from mdp
14388 14389     1   0.1111   0.1111
[ constraints ] ; from mdp
14388 14390     1   0.1111   0.1111
[ bonds ]
14388 14391     1    0.153   186188    0.153   186188
[ constraints ] ; from mdp
14391 14392     1   0.1111   0.1111
[ constraints ] ; from mdp
14391 14393     1   0.1111   0.1111
[ bonds ]
14391 14394     1    0.153   186188    0.153   186188
[ constraints ] ; from mdp
14394 14395     1   0.1111   0.1111
[ constraints ] ; from mdp
14394 14396     1   0.1111   0.1111
[ bonds ]
14394 14397     1    0.153   186188    0.153   186188
[ constraints ] ; from mdp
14397 14398     1   0.1111   0.1111
[ constraints ] ; from mdp
14397 14399     1   0.1111   0.1111
[ bonds ]
14397 14400     1    0.153   186188    0.153   186188
[ constraints ] ; from mdp
14400 14401     1   0.1111   0.1111
[ constraints ] ; from mdp
14400 14402     1   0.1111   0.1111
[ bonds ]
14400 14403     1    0.153   186188    0.153   186188
[ constraints ] ; from mdp
14403 14404     1   0.1111   0.1111
[ constraints ] ; from mdp
14403 14405     1   0.1111   0.1111
[ bonds ]
14403 14406     1    0.153   186188    0.153   186188
[ constraints ] ; from mdp
14406 14407     1   0.1111   0.1111
[ constraints ] ; from mdp
14406 14408     1   0.1111   0.1111
[ bonds ]
14406 14409     1    0.153   186188    0.153   186188
[ constraints ] ; from mdp
14409 14410     1   0.1111   0.1111
[ constraints ] ; from mdp
14409 14411     1   0.1111   0.1111
[ bonds ]
14409 14412     1    0.153   186188    0.153   186188
[ constraints ] ; from mdp
14412 14413     1   0.1111   0.1111
[ constraints ] ; from mdp
14412 14414     1   0.1111   0.1111
[ bonds ]
14412 14415     1    0.153   186188    0.153   186188
[ constraints ] ; from mdp
14415 14416     1   0.1111   0.1111
[ constraints ] ; from mdp
14415 14417     1   0.1111   0.1111
[ bonds ]
14415 14418     1    0.153   186188    0.153   186188
[ constraints ] ; from mdp
14418 14419     1   0.1111   0.1111
[ constraints ] ; from mdp
14418 14420     1   0.1111   0.1111
[ bonds ]
14418 14421     1    0.153   186188    0.153   186188
[ constraints ] ; from mdp
14421 14422     1   0.1111   0.1111
[ constraints ] ; from mdp
14421 14423     1   0.1111   0.1111
[ bonds ]
14421 14424     1    0.153   186188    0.153   186188
[ constraints ] ; from mdp
14424 14425     1   0.1111   0.1111
[ constraints ] ; from mdp
14424 14426     1   0.1111   0.1111
[ bonds ]
14424 14427     1   0.1528   186188   0.1528   186188
[ constraints ] ; from mdp
14427 14428     1   0.1111   0.1111
[ constraints ] ; from mdp
14427 14429     1   0.1111   0.1111
[ constraints ] ; from mdp
14427 14430     1   0.1111   0.1111
[ bonds ]
14431 14432     1    0.151   179912    0.151   179912
[ bonds ]
14431 14436     1    0.151   179912    0.151   179912
[ bonds ]
14431 14440     1    0.151   179912    0.151   179912
[ bonds ]
14431 14444     1    0.151   179912    0.151   179912
[ constraints ] ; from mdp
14432 14433     1    0.108    0.108
[ constraints ] ; from mdp
14432 14434     1    0.108    0.108
[ constraints ] ; from mdp
14432 14435     1    0.108    0.108
[ constraints ] ; from mdp
14436 14437     1    0.108    0.108
[ constraints ] ; from mdp
14436 14438     1    0.108    0.108
[ constraints ] ; from mdp
14436 14439     1    0.108    0.108
[ constraints ] ; from mdp
14440 14441     1    0.108    0.108
[ constraints ] ; from mdp
14440 14442     1    0.108    0.108
[ constraints ] ; from mdp
14440 14443     1    0.108    0.108
[ constraints ] ; from mdp
14444 14445     1    0.108    0.108
[ constraints ] ; from mdp
14444 14446     1    0.108    0.108
[ bonds ]
14444 14447     1    0.153   186188    0.153   186188
[ constraints ] ; from mdp
14447 14448     1   0.1111   0.1111
[ constraints ] ; from mdp
14447 14449     1   0.1111   0.1111
[ bonds ]
14447 14454     1    0.143   284512    0.143   284512
[ bonds ]
14450 14451     1    0.148   485344    0.148   485344
[ bonds ]
14450 14452     1    0.148   485344    0.148   485344
[ bonds ]
14450 14453     1     0.16   225936     0.16   225936
[ bonds ]
14450 14454     1     0.16   225936     0.16   225936
[ bonds ]
14453 14455     1    0.143   284512    0.143   284512
[ constraints ] ; from mdp
14455 14456     1   0.1111   0.1111
[ constraints ] ; from mdp
14455 14457     1   0.1111   0.1111
[ bonds ]
14455 14458     1   0.1538   186188   0.1538   186188
[ constraints ] ; from mdp
14458 14459     1   0.1111   0.1111
[ bonds ]
14458 14460     1    0.143   284512    0.143   284512
[ bonds ]
14458 14466     1   0.1538   186188   0.1538   186188
[ bonds ]
14460 14461     1   0.1334   125520   0.1334   125520
[ bonds ]
14461 14462     1    0.122   627600    0.122   627600
[ bonds ]
14461 14463     1   0.1522   167360   0.1522   167360
[ constraints ] ; from mdp
14463 14464     1   0.1111   0.1111
[ constraints ] ; from mdp
14463 14465     1   0.1111   0.1111
[ bonds ]
14463 14475     1    0.153   186188    0.153   186188
[ constraints ] ; from mdp
14466 14467     1   0.1111   0.1111
[ constraints ] ; from mdp
14466 14468     1   0.1111   0.1111
[ bonds ]
14466 14469     1    0.143   284512    0.143   284512
[ bonds ]
14469 14470     1   0.1334   125520   0.1334   125520
[ bonds ]
14470 14471     1    0.122   627600    0.122   627600
[ bonds ]
14470 14472     1   0.1522   167360   0.1522   167360
[ constraints ] ; from mdp
14472 14473     1   0.1111   0.1111
[ constraints ] ; from mdp
14472 14474     1   0.1111   0.1111
[ bonds ]
14472 14518     1    0.153   186188    0.153   186188
[ constraints ] ; from mdp
14475 14476     1   0.1111   0.1111
[ constraints ] ; from mdp
14475 14477     1   0.1111   0.1111
[ bonds ]
14475 14478     1    0.153   186188    0.153   186188
[ constraints ] ; from mdp
14478 14479     1   0.1111   0.1111
[ constraints ] ; from mdp
14478 14480     1   0.1111   0.1111
[ bonds ]
14478 14481     1    0.153   186188    0.153   186188
[ constraints ] ; from mdp
14481 14482     1   0.1111   0.1111
[ constraints ] ; from mdp
14481 14483     1   0.1111   0.1111
[ bonds ]
14481 14484     1    0.153   186188    0.153   186188
[ constraints ] ; from mdp
14484 14485     1   0.1111   0.1111
[ constraints ] ; from mdp
14484 14486     1   0.1111   0.1111
[ bonds ]
14484 14487     1    0.153   186188    0.153   186188
[ constraints ] ; from mdp
14487 14488     1   0.1111   0.1111
[ constraints ] ; from mdp
14487 14489     1   0.1111   0.1111
[ bonds ]
14487 14490     1    0.153   186188    0.153   186188
[ constraints ] ; from mdp
14490 14491     1   0.1111   0.1111
[ constraints ] ; from mdp
14490 14492     1   0.1111   0.1111
[ bonds ]
14490 14493     1    0.153   186188    0.153   186188
[ constraints ] ; from mdp
14493 14494     1   0.1111   0.1111
[ constraints ] ; from mdp
14493 14495     1   0.1111   0.1111
[ bonds ]
14493 14496     1    0.153   186188    0.153   186188
[ constraints ] ; from mdp
14496 14497     1   0.1111   0.1111
[ constraints ] ; from mdp
14496 14498     1   0.1111   0.1111
[ bonds ]
14496 14499     1    0.153   186188    0.153   186188
[ constraints ] ; from mdp
14499 14500     1   0.1111   0.1111
[ constraints ] ; from mdp
14499 14501     1   0.1111   0.1111
[ bonds ]
14499 14502     1    0.153   186188    0.153   186188
[ constraints ] ; from mdp
14502 14503     1   0.1111   0.1111
[ constraints ] ; from mdp
14502 14504     1   0.1111   0.1111
[ bonds ]
14502 14505     1    0.153   186188    0.153   186188
[ constraints ] ; from mdp
14505 14506     1   0.1111   0.1111
[ constraints ] ; from mdp
14505 14507     1   0.1111   0.1111
[ bonds ]
14505 14508     1    0.153   186188    0.153   186188
[ constraints ] ; from mdp
14508 14509     1   0.1111   0.1111
[ constraints ] ; from mdp
14508 14510     1   0.1111   0.1111
[ bonds ]
14508 14511     1    0.153   186188    0.153   186188
[ constraints ] ; from mdp
14511 14512     1   0.1111   0.1111
[ constraints ] ; from mdp
14511 14513     1   0.1111   0.1111
[ bonds ]
14511 14514     1   0.1528   186188   0.1528   186188
[ constraints ] ; from mdp
14514 14515     1   0.1111   0.1111
[ constraints ] ; from mdp
14514 14516     1   0.1111   0.1111
[ constraints ] ; from mdp
14514 14517     1   0.1111   0.1111
[ constraints ] ; from mdp
14518 14519     1   0.1111   0.1111
[ constraints ] ; from mdp
14518 14520     1   0.1111   0.1111
[ bonds ]
14518 14521     1    0.153   186188    0.153   186188
[ constraints ] ; from mdp
14521 14522     1   0.1111   0.1111
[ constraints ] ; from mdp
14521 14523     1   0.1111   0.1111
[ bonds ]
14521 14524     1    0.153   186188    0.153   186188
[ constraints ] ; from mdp
14524 14525     1   0.1111   0.1111
[ constraints ] ; from mdp
14524 14526     1   0.1111   0.1111
[ bonds ]
14524 14527     1    0.153   186188    0.153   186188
[ constraints ] ; from mdp
14527 14528     1   0.1111   0.1111
[ constraints ] ; from mdp
14527 14529     1   0.1111   0.1111
[ bonds ]
14527 14530     1    0.153   186188    0.153   186188
[ constraints ] ; from mdp
14530 14531     1   0.1111   0.1111
[ constraints ] ; from mdp
14530 14532     1   0.1111   0.1111
[ bonds ]
14530 14533     1    0.153   186188    0.153   186188
[ constraints ] ; from mdp
14533 14534     1   0.1111   0.1111
[ constraints ] ; from mdp
14533 14535     1   0.1111   0.1111
[ bonds ]
14533 14536     1    0.153   186188    0.153   186188
[ constraints ] ; from mdp
14536 14537     1   0.1111   0.1111
[ constraints ] ; from mdp
14536 14538     1   0.1111   0.1111
[ bonds ]
14536 14539     1    0.153   186188    0.153   186188
[ constraints ] ; from mdp
14539 14540     1   0.1111   0.1111
[ constraints ] ; from mdp
14539 14541     1   0.1111   0.1111
[ bonds ]
14539 14542     1    0.153   186188    0.153   186188
[ constraints ] ; from mdp
14542 14543     1   0.1111   0.1111
[ constraints ] ; from mdp
14542 14544     1   0.1111   0.1111
[ bonds ]
14542 14545     1    0.153   186188    0.153   186188
[ constraints ] ; from mdp
14545 14546     1   0.1111   0.1111
[ constraints ] ; from mdp
14545 14547     1   0.1111   0.1111
[ bonds ]
14545 14548     1    0.153   186188    0.153   186188
[ constraints ] ; from mdp
14548 14549     1   0.1111   0.1111
[ constraints ] ; from mdp
14548 14550     1   0.1111   0.1111
[ bonds ]
14548 14551     1    0.153   186188    0.153   186188
[ constraints ] ; from mdp
14551 14552     1   0.1111   0.1111
[ constraints ] ; from mdp
14551 14553     1   0.1111   0.1111
[ bonds ]
14551 14554     1    0.153   186188    0.153   186188
[ constraints ] ; from mdp
14554 14555     1   0.1111   0.1111
[ constraints ] ; from mdp
14554 14556     1   0.1111   0.1111
[ bonds ]
14554 14557     1   0.1528   186188   0.1528   186188
[ constraints ] ; from mdp
14557 14558     1   0.1111   0.1111
[ constraints ] ; from mdp
14557 14559     1   0.1111   0.1111
[ constraints ] ; from mdp
14557 14560     1   0.1111   0.1111
[ bonds ]
14561 14562     1    0.151   179912    0.151   179912
[ bonds ]
14561 14566     1    0.151   179912    0.151   179912
[ bonds ]
14561 14570     1    0.151   179912    0.151   179912
[ bonds ]
14561 14574     1    0.151   179912    0.151   179912
[ constraints ] ; from mdp
14562 14563     1    0.108    0.108
[ constraints ] ; from mdp
14562 14564     1    0.108    0.108
[ constraints ] ; from mdp
14562 14565     1    0.108    0.108
[ constraints ] ; from mdp
14566 14567     1    0.108    0.108
[ constraints ] ; from mdp
14566 14568     1    0.108    0.108
[ constraints ] ; from mdp
14566 14569     1    0.108    0.108
[ constraints ] ; from mdp
14570 14571     1    0.108    0.108
[ constraints ] ; from mdp
14570 14572     1    0.108    0.108
[ constraints ] ; from mdp
14570 14573     1    0.108    0.108
[ constraints ] ; from mdp
14574 14575     1    0.108    0.108
[ constraints ] ; from mdp
14574 14576     1    0.108    0.108
[ bonds ]
14574 14577     1    0.153   186188    0.153   186188
[ constraints ] ; from mdp
14577 14578     1   0.1111   0.1111
[ constraints ] ; from mdp
14577 14579     1   0.1111   0.1111
[ bonds ]
14577 14584     1    0.143   284512    0.143   284512
[ bonds ]
14580 14581     1    0.148   485344    0.148   485344
[ bonds ]
14580 14582     1    0.148   485344    0.148   485344
[ bonds ]
14580 14583     1     0.16   225936     0.16   225936
[ bonds ]
14580 14584     1     0.16   225936     0.16   225936
[ bonds ]
14583 14585     1    0.143   284512    0.143   284512
[ constraints ] ; from mdp
14585 14586     1   0.1111   0.1111
[ constraints ] ; from mdp
14585 14587     1   0.1111   0.1111
[ bonds ]
14585 14588     1   0.1538   186188   0.1538   186188
[ constraints ] ; from mdp
14588 14589     1   0.1111   0.1111
[ bonds ]
14588 14590     1    0.143   284512    0.143   284512
[ bonds ]
14588 14596     1   0.1538   186188   0.1538   186188
[ bonds ]
14590 14591     1   0.1334   125520   0.1334   125520
[ bonds ]
14591 14592     1    0.122   627600    0.122   627600
[ bonds ]
14591 14593     1   0.1522   167360   0.1522   167360
[ constraints ] ; from mdp
14593 14594     1   0.1111   0.1111
[ constraints ] ; from mdp
14593 14595     1   0.1111   0.1111
[ bonds ]
14593 14605     1    0.153   186188    0.153   186188
[ constraints ] ; from mdp
14596 14597     1   0.1111   0.1111
[ constraints ] ; from mdp
14596 14598     1   0.1111   0.1111
[ bonds ]
14596 14599     1    0.143   284512    0.143   284512
[ bonds ]
14599 14600     1   0.1334   125520   0.1334   125520
[ bonds ]
14600 14601     1    0.122   627600    0.122   627600
[ bonds ]
14600 14602     1   0.1522   167360   0.1522   167360
[ constraints ] ; from mdp
14602 14603     1   0.1111   0.1111
[ constraints ] ; from mdp
14602 14604     1   0.1111   0.1111
[ bonds ]
14602 14648     1    0.153   186188    0.153   186188
[ constraints ] ; from mdp
14605 14606     1   0.1111   0.1111
[ constraints ] ; from mdp
14605 14607     1   0.1111   0.1111
[ bonds ]
14605 14608     1    0.153   186188    0.153   186188
[ constraints ] ; from mdp
14608 14609     1   0.1111   0.1111
[ constraints ] ; from mdp
14608 14610     1   0.1111   0.1111
[ bonds ]
14608 14611     1    0.153   186188    0.153   186188
[ constraints ] ; from mdp
14611 14612     1   0.1111   0.1111
[ constraints ] ; from mdp
14611 14613     1   0.1111   0.1111
[ bonds ]
14611 14614     1    0.153   186188    0.153   186188
[ constraints ] ; from mdp
14614 14615     1   0.1111   0.1111
[ constraints ] ; from mdp
14614 14616     1   0.1111   0.1111
[ bonds ]
14614 14617     1    0.153   186188    0.153   186188
[ constraints ] ; from mdp
14617 14618     1   0.1111   0.1111
[ constraints ] ; from mdp
14617 14619     1   0.1111   0.1111
[ bonds ]
14617 14620     1    0.153   186188    0.153   186188
[ constraints ] ; from mdp
14620 14621     1   0.1111   0.1111
[ constraints ] ; from mdp
14620 14622     1   0.1111   0.1111
[ bonds ]
14620 14623     1    0.153   186188    0.153   186188
[ constraints ] ; from mdp
14623 14624     1   0.1111   0.1111
[ constraints ] ; from mdp
14623 14625     1   0.1111   0.1111
[ bonds ]
14623 14626     1    0.153   186188    0.153   186188
[ constraints ] ; from mdp
14626 14627     1   0.1111   0.1111
[ constraints ] ; from mdp
14626 14628     1   0.1111   0.1111
[ bonds ]
14626 14629     1    0.153   186188    0.153   186188
[ constraints ] ; from mdp
14629 14630     1   0.1111   0.1111
[ constraints ] ; from mdp
14629 14631     1   0.1111   0.1111
[ bonds ]
14629 14632     1    0.153   186188    0.153   186188
[ constraints ] ; from mdp
14632 14633     1   0.1111   0.1111
[ constraints ] ; from mdp
14632 14634     1   0.1111   0.1111
[ bonds ]
14632 14635     1    0.153   186188    0.153   186188
[ constraints ] ; from mdp
14635 14636     1   0.1111   0.1111
[ constraints ] ; from mdp
14635 14637     1   0.1111   0.1111
[ bonds ]
14635 14638     1    0.153   186188    0.153   186188
[ constraints ] ; from mdp
14638 14639     1   0.1111   0.1111
[ constraints ] ; from mdp
14638 14640     1   0.1111   0.1111
[ bonds ]
14638 14641     1    0.153   186188    0.153   186188
[ constraints ] ; from mdp
14641 14642     1   0.1111   0.1111
[ constraints ] ; from mdp
14641 14643     1   0.1111   0.1111
[ bonds ]
14641 14644     1   0.1528   186188   0.1528   186188
[ constraints ] ; from mdp
14644 14645     1   0.1111   0.1111
[ constraints ] ; from mdp
14644 14646     1   0.1111   0.1111
[ constraints ] ; from mdp
14644 14647     1   0.1111   0.1111
[ constraints ] ; from mdp
14648 14649     1   0.1111   0.1111
[ constraints ] ; from mdp
14648 14650     1   0.1111   0.1111
[ bonds ]
14648 14651     1    0.153   186188    0.153   186188
[ constraints ] ; from mdp
14651 14652     1   0.1111   0.1111
[ constraints ] ; from mdp
14651 14653     1   0.1111   0.1111
[ bonds ]
14651 14654     1    0.153   186188    0.153   186188
[ constraints ] ; from mdp
14654 14655     1   0.1111   0.1111
[ constraints ] ; from mdp
14654 14656     1   0.1111   0.1111
[ bonds ]
14654 14657     1    0.153   186188    0.153   186188
[ constraints ] ; from mdp
14657 14658     1   0.1111   0.1111
[ constraints ] ; from mdp
14657 14659     1   0.1111   0.1111
[ bonds ]
14657 14660     1    0.153   186188    0.153   186188
[ constraints ] ; from mdp
14660 14661     1   0.1111   0.1111
[ constraints ] ; from mdp
14660 14662     1   0.1111   0.1111
[ bonds ]
14660 14663     1    0.153   186188    0.153   186188
[ constraints ] ; from mdp
14663 14664     1   0.1111   0.1111
[ constraints ] ; from mdp
14663 14665     1   0.1111   0.1111
[ bonds ]
14663 14666     1    0.153   186188    0.153   186188
[ constraints ] ; from mdp
14666 14667     1   0.1111   0.1111
[ constraints ] ; from mdp
14666 14668     1   0.1111   0.1111
[ bonds ]
14666 14669     1    0.153   186188    0.153   186188
[ constraints ] ; from mdp
14669 14670     1   0.1111   0.1111
[ constraints ] ; from mdp
14669 14671     1   0.1111   0.1111
[ bonds ]
14669 14672     1    0.153   186188    0.153   186188
[ constraints ] ; from mdp
14672 14673     1   0.1111   0.1111
[ constraints ] ; from mdp
14672 14674     1   0.1111   0.1111
[ bonds ]
14672 14675     1    0.153   186188    0.153   186188
[ constraints ] ; from mdp
14675 14676     1   0.1111   0.1111
[ constraints ] ; from mdp
14675 14677     1   0.1111   0.1111
[ bonds ]
14675 14678     1    0.153   186188    0.153   186188
[ constraints ] ; from mdp
14678 14679     1   0.1111   0.1111
[ constraints ] ; from mdp
14678 14680     1   0.1111   0.1111
[ bonds ]
14678 14681     1    0.153   186188    0.153   186188
[ constraints ] ; from mdp
14681 14682     1   0.1111   0.1111
[ constraints ] ; from mdp
14681 14683     1   0.1111   0.1111
[ bonds ]
14681 14684     1    0.153   186188    0.153   186188
[ constraints ] ; from mdp
14684 14685     1   0.1111   0.1111
[ constraints ] ; from mdp
14684 14686     1   0.1111   0.1111
[ bonds ]
14684 14687     1   0.1528   186188   0.1528   186188
[ constraints ] ; from mdp
14687 14688     1   0.1111   0.1111
[ constraints ] ; from mdp
14687 14689     1   0.1111   0.1111
[ constraints ] ; from mdp
14687 14690     1   0.1111   0.1111
[ bonds ]
14691 14692     1    0.151   179912    0.151   179912
[ bonds ]
14691 14696     1    0.151   179912    0.151   179912
[ bonds ]
14691 14700     1    0.151   179912    0.151   179912
[ bonds ]
14691 14704     1    0.151   179912    0.151   179912
[ constraints ] ; from mdp
14692 14693     1    0.108    0.108
[ constraints ] ; from mdp
14692 14694     1    0.108    0.108
[ constraints ] ; from mdp
14692 14695     1    0.108    0.108
[ constraints ] ; from mdp
14696 14697     1    0.108    0.108
[ constraints ] ; from mdp
14696 14698     1    0.108    0.108
[ constraints ] ; from mdp
14696 14699     1    0.108    0.108
[ constraints ] ; from mdp
14700 14701     1    0.108    0.108
[ constraints ] ; from mdp
14700 14702     1    0.108    0.108
[ constraints ] ; from mdp
14700 14703     1    0.108    0.108
[ constraints ] ; from mdp
14704 14705     1    0.108    0.108
[ constraints ] ; from mdp
14704 14706     1    0.108    0.108
[ bonds ]
14704 14707     1    0.153   186188    0.153   186188
[ constraints ] ; from mdp
14707 14708     1   0.1111   0.1111
[ constraints ] ; from mdp
14707 14709     1   0.1111   0.1111
[ bonds ]
14707 14714     1    0.143   284512    0.143   284512
[ bonds ]
14710 14711     1    0.148   485344    0.148   485344
[ bonds ]
14710 14712     1    0.148   485344    0.148   485344
[ bonds ]
14710 14713     1     0.16   225936     0.16   225936
[ bonds ]
14710 14714     1     0.16   225936     0.16   225936
[ bonds ]
14713 14715     1    0.143   284512    0.143   284512
[ constraints ] ; from mdp
14715 14716     1   0.1111   0.1111
[ constraints ] ; from mdp
14715 14717     1   0.1111   0.1111
[ bonds ]
14715 14718     1   0.1538   186188   0.1538   186188
[ constraints ] ; from mdp
14718 14719     1   0.1111   0.1111
[ bonds ]
14718 14720     1    0.143   284512    0.143   284512
[ bonds ]
14718 14726     1   0.1538   186188   0.1538   186188
[ bonds ]
14720 14721     1   0.1334   125520   0.1334   125520
[ bonds ]
14721 14722     1    0.122   627600    0.122   627600
[ bonds ]
14721 14723     1   0.1522   167360   0.1522   167360
[ constraints ] ; from mdp
14723 14724     1   0.1111   0.1111
[ constraints ] ; from mdp
14723 14725     1   0.1111   0.1111
[ bonds ]
14723 14735     1    0.153   186188    0.153   186188
[ constraints ] ; from mdp
14726 14727     1   0.1111   0.1111
[ constraints ] ; from mdp
14726 14728     1   0.1111   0.1111
[ bonds ]
14726 14729     1    0.143   284512    0.143   284512
[ bonds ]
14729 14730     1   0.1334   125520   0.1334   125520
[ bonds ]
14730 14731     1    0.122   627600    0.122   627600
[ bonds ]
14730 14732     1   0.1522   167360   0.1522   167360
[ constraints ] ; from mdp
14732 14733     1   0.1111   0.1111
[ constraints ] ; from mdp
14732 14734     1   0.1111   0.1111
[ bonds ]
14732 14778     1    0.153   186188    0.153   186188
[ constraints ] ; from mdp
14735 14736     1   0.1111   0.1111
[ constraints ] ; from mdp
14735 14737     1   0.1111   0.1111
[ bonds ]
14735 14738     1    0.153   186188    0.153   186188
[ constraints ] ; from mdp
14738 14739     1   0.1111   0.1111
[ constraints ] ; from mdp
14738 14740     1   0.1111   0.1111
[ bonds ]
14738 14741     1    0.153   186188    0.153   186188
[ constraints ] ; from mdp
14741 14742     1   0.1111   0.1111
[ constraints ] ; from mdp
14741 14743     1   0.1111   0.1111
[ bonds ]
14741 14744     1    0.153   186188    0.153   186188
[ constraints ] ; from mdp
14744 14745     1   0.1111   0.1111
[ constraints ] ; from mdp
14744 14746     1   0.1111   0.1111
[ bonds ]
14744 14747     1    0.153   186188    0.153   186188
[ constraints ] ; from mdp
14747 14748     1   0.1111   0.1111
[ constraints ] ; from mdp
14747 14749     1   0.1111   0.1111
[ bonds ]
14747 14750     1    0.153   186188    0.153   186188
[ constraints ] ; from mdp
14750 14751     1   0.1111   0.1111
[ constraints ] ; from mdp
14750 14752     1   0.1111   0.1111
[ bonds ]
14750 14753     1    0.153   186188    0.153   186188
[ constraints ] ; from mdp
14753 14754     1   0.1111   0.1111
[ constraints ] ; from mdp
14753 14755     1   0.1111   0.1111
[ bonds ]
14753 14756     1    0.153   186188    0.153   186188
[ constraints ] ; from mdp
14756 14757     1   0.1111   0.1111
[ constraints ] ; from mdp
14756 14758     1   0.1111   0.1111
[ bonds ]
14756 14759     1    0.153   186188    0.153   186188
[ constraints ] ; from mdp
14759 14760     1   0.1111   0.1111
[ constraints ] ; from mdp
14759 14761     1   0.1111   0.1111
[ bonds ]
14759 14762     1    0.153   186188    0.153   186188
[ constraints ] ; from mdp
14762 14763     1   0.1111   0.1111
[ constraints ] ; from mdp
14762 14764     1   0.1111   0.1111
[ bonds ]
14762 14765     1    0.153   186188    0.153   186188
[ constraints ] ; from mdp
14765 14766     1   0.1111   0.1111
[ constraints ] ; from mdp
14765 14767     1   0.1111   0.1111
[ bonds ]
14765 14768     1    0.153   186188    0.153   186188
[ constraints ] ; from mdp
14768 14769     1   0.1111   0.1111
[ constraints ] ; from mdp
14768 14770     1   0.1111   0.1111
[ bonds ]
14768 14771     1    0.153   186188    0.153   186188
[ constraints ] ; from mdp
14771 14772     1   0.1111   0.1111
[ constraints ] ; from mdp
14771 14773     1   0.1111   0.1111
[ bonds ]
14771 14774     1   0.1528   186188   0.1528   186188
[ constraints ] ; from mdp
14774 14775     1   0.1111   0.1111
[ constraints ] ; from mdp
14774 14776     1   0.1111   0.1111
[ constraints ] ; from mdp
14774 14777     1   0.1111   0.1111
[ constraints ] ; from mdp
14778 14779     1   0.1111   0.1111
[ constraints ] ; from mdp
14778 14780     1   0.1111   0.1111
[ bonds ]
14778 14781     1    0.153   186188    0.153   186188
[ constraints ] ; from mdp
14781 14782     1   0.1111   0.1111
[ constraints ] ; from mdp
14781 14783     1   0.1111   0.1111
[ bonds ]
14781 14784     1    0.153   186188    0.153   186188
[ constraints ] ; from mdp
14784 14785     1   0.1111   0.1111
[ constraints ] ; from mdp
14784 14786     1   0.1111   0.1111
[ bonds ]
14784 14787     1    0.153   186188    0.153   186188
[ constraints ] ; from mdp
14787 14788     1   0.1111   0.1111
[ constraints ] ; from mdp
14787 14789     1   0.1111   0.1111
[ bonds ]
14787 14790     1    0.153   186188    0.153   186188
[ constraints ] ; from mdp
14790 14791     1   0.1111   0.1111
[ constraints ] ; from mdp
14790 14792     1   0.1111   0.1111
[ bonds ]
14790 14793     1    0.153   186188    0.153   186188
[ constraints ] ; from mdp
14793 14794     1   0.1111   0.1111
[ constraints ] ; from mdp
14793 14795     1   0.1111   0.1111
[ bonds ]
14793 14796     1    0.153   186188    0.153   186188
[ constraints ] ; from mdp
14796 14797     1   0.1111   0.1111
[ constraints ] ; from mdp
14796 14798     1   0.1111   0.1111
[ bonds ]
14796 14799     1    0.153   186188    0.153   186188
[ constraints ] ; from mdp
14799 14800     1   0.1111   0.1111
[ constraints ] ; from mdp
14799 14801     1   0.1111   0.1111
[ bonds ]
14799 14802     1    0.153   186188    0.153   186188
[ constraints ] ; from mdp
14802 14803     1   0.1111   0.1111
[ constraints ] ; from mdp
14802 14804     1   0.1111   0.1111
[ bonds ]
14802 14805     1    0.153   186188    0.153   186188
[ constraints ] ; from mdp
14805 14806     1   0.1111   0.1111
[ constraints ] ; from mdp
14805 14807     1   0.1111   0.1111
[ bonds ]
14805 14808     1    0.153   186188    0.153   186188
[ constraints ] ; from mdp
14808 14809     1   0.1111   0.1111
[ constraints ] ; from mdp
14808 14810     1   0.1111   0.1111
[ bonds ]
14808 14811     1    0.153   186188    0.153   186188
[ constraints ] ; from mdp
14811 14812     1   0.1111   0.1111
[ constraints ] ; from mdp
14811 14813     1   0.1111   0.1111
[ bonds ]
14811 14814     1    0.153   186188    0.153   186188
[ constraints ] ; from mdp
14814 14815     1   0.1111   0.1111
[ constraints ] ; from mdp
14814 14816     1   0.1111   0.1111
[ bonds ]
14814 14817     1   0.1528   186188   0.1528   186188
[ constraints ] ; from mdp
14817 14818     1   0.1111   0.1111
[ constraints ] ; from mdp
14817 14819     1   0.1111   0.1111
[ constraints ] ; from mdp
14817 14820     1   0.1111   0.1111
[ bonds ]
14821 14822     1    0.151   179912    0.151   179912
[ bonds ]
14821 14826     1    0.151   179912    0.151   179912
[ bonds ]
14821 14830     1    0.151   179912    0.151   179912
[ bonds ]
14821 14834     1    0.151   179912    0.151   179912
[ constraints ] ; from mdp
14822 14823     1    0.108    0.108
[ constraints ] ; from mdp
14822 14824     1    0.108    0.108
[ constraints ] ; from mdp
14822 14825     1    0.108    0.108
[ constraints ] ; from mdp
14826 14827     1    0.108    0.108
[ constraints ] ; from mdp
14826 14828     1    0.108    0.108
[ constraints ] ; from mdp
14826 14829     1    0.108    0.108
[ constraints ] ; from mdp
14830 14831     1    0.108    0.108
[ constraints ] ; from mdp
14830 14832     1    0.108    0.108
[ constraints ] ; from mdp
14830 14833     1    0.108    0.108
[ constraints ] ; from mdp
14834 14835     1    0.108    0.108
[ constraints ] ; from mdp
14834 14836     1    0.108    0.108
[ bonds ]
14834 14837     1    0.153   186188    0.153   186188
[ constraints ] ; from mdp
14837 14838     1   0.1111   0.1111
[ constraints ] ; from mdp
14837 14839     1   0.1111   0.1111
[ bonds ]
14837 14844     1    0.143   284512    0.143   284512
[ bonds ]
14840 14841     1    0.148   485344    0.148   485344
[ bonds ]
14840 14842     1    0.148   485344    0.148   485344
[ bonds ]
14840 14843     1     0.16   225936     0.16   225936
[ bonds ]
14840 14844     1     0.16   225936     0.16   225936
[ bonds ]
14843 14845     1    0.143   284512    0.143   284512
[ constraints ] ; from mdp
14845 14846     1   0.1111   0.1111
[ constraints ] ; from mdp
14845 14847     1   0.1111   0.1111
[ bonds ]
14845 14848     1   0.1538   186188   0.1538   186188
[ constraints ] ; from mdp
14848 14849     1   0.1111   0.1111
[ bonds ]
14848 14850     1    0.143   284512    0.143   284512
[ bonds ]
14848 14856     1   0.1538   186188   0.1538   186188
[ bonds ]
14850 14851     1   0.1334   125520   0.1334   125520
[ bonds ]
14851 14852     1    0.122   627600    0.122   627600
[ bonds ]
14851 14853     1   0.1522   167360   0.1522   167360
[ constraints ] ; from mdp
14853 14854     1   0.1111   0.1111
[ constraints ] ; from mdp
14853 14855     1   0.1111   0.1111
[ bonds ]
14853 14865     1    0.153   186188    0.153   186188
[ constraints ] ; from mdp
14856 14857     1   0.1111   0.1111
[ constraints ] ; from mdp
14856 14858     1   0.1111   0.1111
[ bonds ]
14856 14859     1    0.143   284512    0.143   284512
[ bonds ]
14859 14860     1   0.1334   125520   0.1334   125520
[ bonds ]
14860 14861     1    0.122   627600    0.122   627600
[ bonds ]
14860 14862     1   0.1522   167360   0.1522   167360
[ constraints ] ; from mdp
14862 14863     1   0.1111   0.1111
[ constraints ] ; from mdp
14862 14864     1   0.1111   0.1111
[ bonds ]
14862 14908     1    0.153   186188    0.153   186188
[ constraints ] ; from mdp
14865 14866     1   0.1111   0.1111
[ constraints ] ; from mdp
14865 14867     1   0.1111   0.1111
[ bonds ]
14865 14868     1    0.153   186188    0.153   186188
[ constraints ] ; from mdp
14868 14869     1   0.1111   0.1111
[ constraints ] ; from mdp
14868 14870     1   0.1111   0.1111
[ bonds ]
14868 14871     1    0.153   186188    0.153   186188
[ constraints ] ; from mdp
14871 14872     1   0.1111   0.1111
[ constraints ] ; from mdp
14871 14873     1   0.1111   0.1111
[ bonds ]
14871 14874     1    0.153   186188    0.153   186188
[ constraints ] ; from mdp
14874 14875     1   0.1111   0.1111
[ constraints ] ; from mdp
14874 14876     1   0.1111   0.1111
[ bonds ]
14874 14877     1    0.153   186188    0.153   186188
[ constraints ] ; from mdp
14877 14878     1   0.1111   0.1111
[ constraints ] ; from mdp
14877 14879     1   0.1111   0.1111
[ bonds ]
14877 14880     1    0.153   186188    0.153   186188
[ constraints ] ; from mdp
14880 14881     1   0.1111   0.1111
[ constraints ] ; from mdp
14880 14882     1   0.1111   0.1111
[ bonds ]
14880 14883     1    0.153   186188    0.153   186188
[ constraints ] ; from mdp
14883 14884     1   0.1111   0.1111
[ constraints ] ; from mdp
14883 14885     1   0.1111   0.1111
[ bonds ]
14883 14886     1    0.153   186188    0.153   186188
[ constraints ] ; from mdp
14886 14887     1   0.1111   0.1111
[ constraints ] ; from mdp
14886 14888     1   0.1111   0.1111
[ bonds ]
14886 14889     1    0.153   186188    0.153   186188
[ constraints ] ; from mdp
14889 14890     1   0.1111   0.1111
[ constraints ] ; from mdp
14889 14891     1   0.1111   0.1111
[ bonds ]
14889 14892     1    0.153   186188    0.153   186188
[ constraints ] ; from mdp
14892 14893     1   0.1111   0.1111
[ constraints ] ; from mdp
14892 14894     1   0.1111   0.1111
[ bonds ]
14892 14895     1    0.153   186188    0.153   186188
[ constraints ] ; from mdp
14895 14896     1   0.1111   0.1111
[ constraints ] ; from mdp
14895 14897     1   0.1111   0.1111
[ bonds ]
14895 14898     1    0.153   186188    0.153   186188
[ constraints ] ; from mdp
14898 14899     1   0.1111   0.1111
[ constraints ] ; from mdp
14898 14900     1   0.1111   0.1111
[ bonds ]
14898 14901     1    0.153   186188    0.153   186188
[ constraints ] ; from mdp
14901 14902     1   0.1111   0.1111
[ constraints ] ; from mdp
14901 14903     1   0.1111   0.1111
[ bonds ]
14901 14904     1   0.1528   186188   0.1528   186188
[ constraints ] ; from mdp
14904 14905     1   0.1111   0.1111
[ constraints ] ; from mdp
14904 14906     1   0.1111   0.1111
[ constraints ] ; from mdp
14904 14907     1   0.1111   0.1111
[ constraints ] ; from mdp
14908 14909     1   0.1111   0.1111
[ constraints ] ; from mdp
14908 14910     1   0.1111   0.1111
[ bonds ]
14908 14911     1    0.153   186188    0.153   186188
[ constraints ] ; from mdp
14911 14912     1   0.1111   0.1111
[ constraints ] ; from mdp
14911 14913     1   0.1111   0.1111
[ bonds ]
14911 14914     1    0.153   186188    0.153   186188
[ constraints ] ; from mdp
14914 14915     1   0.1111   0.1111
[ constraints ] ; from mdp
14914 14916     1   0.1111   0.1111
[ bonds ]
14914 14917     1    0.153   186188    0.153   186188
[ constraints ] ; from mdp
14917 14918     1   0.1111   0.1111
[ constraints ] ; from mdp
14917 14919     1   0.1111   0.1111
[ bonds ]
14917 14920     1    0.153   186188    0.153   186188
[ constraints ] ; from mdp
14920 14921     1   0.1111   0.1111
[ constraints ] ; from mdp
14920 14922     1   0.1111   0.1111
[ bonds ]
14920 14923     1    0.153   186188    0.153   186188
[ constraints ] ; from mdp
14923 14924     1   0.1111   0.1111
[ constraints ] ; from mdp
14923 14925     1   0.1111   0.1111
[ bonds ]
14923 14926     1    0.153   186188    0.153   186188
[ constraints ] ; from mdp
14926 14927     1   0.1111   0.1111
[ constraints ] ; from mdp
14926 14928     1   0.1111   0.1111
[ bonds ]
14926 14929     1    0.153   186188    0.153   186188
[ constraints ] ; from mdp
14929 14930     1   0.1111   0.1111
[ constraints ] ; from mdp
14929 14931     1   0.1111   0.1111
[ bonds ]
14929 14932     1    0.153   186188    0.153   186188
[ constraints ] ; from mdp
14932 14933     1   0.1111   0.1111
[ constraints ] ; from mdp
14932 14934     1   0.1111   0.1111
[ bonds ]
14932 14935     1    0.153   186188    0.153   186188
[ constraints ] ; from mdp
14935 14936     1   0.1111   0.1111
[ constraints ] ; from mdp
14935 14937     1   0.1111   0.1111
[ bonds ]
14935 14938     1    0.153   186188    0.153   186188
[ constraints ] ; from mdp
14938 14939     1   0.1111   0.1111
[ constraints ] ; from mdp
14938 14940     1   0.1111   0.1111
[ bonds ]
14938 14941     1    0.153   186188    0.153   186188
[ constraints ] ; from mdp
14941 14942     1   0.1111   0.1111
[ constraints ] ; from mdp
14941 14943     1   0.1111   0.1111
[ bonds ]
14941 14944     1    0.153   186188    0.153   186188
[ constraints ] ; from mdp
14944 14945     1   0.1111   0.1111
[ constraints ] ; from mdp
14944 14946     1   0.1111   0.1111
[ bonds ]
14944 14947     1   0.1528   186188   0.1528   186188
[ constraints ] ; from mdp
14947 14948     1   0.1111   0.1111
[ constraints ] ; from mdp
14947 14949     1   0.1111   0.1111
[ constraints ] ; from mdp
14947 14950     1   0.1111   0.1111
[ bonds ]
14951 14952     1    0.151   179912    0.151   179912
[ bonds ]
14951 14956     1    0.151   179912    0.151   179912
[ bonds ]
14951 14960     1    0.151   179912    0.151   179912
[ bonds ]
14951 14964     1    0.151   179912    0.151   179912
[ constraints ] ; from mdp
14952 14953     1    0.108    0.108
[ constraints ] ; from mdp
14952 14954     1    0.108    0.108
[ constraints ] ; from mdp
14952 14955     1    0.108    0.108
[ constraints ] ; from mdp
14956 14957     1    0.108    0.108
[ constraints ] ; from mdp
14956 14958     1    0.108    0.108
[ constraints ] ; from mdp
14956 14959     1    0.108    0.108
[ constraints ] ; from mdp
14960 14961     1    0.108    0.108
[ constraints ] ; from mdp
14960 14962     1    0.108    0.108
[ constraints ] ; from mdp
14960 14963     1    0.108    0.108
[ constraints ] ; from mdp
14964 14965     1    0.108    0.108
[ constraints ] ; from mdp
14964 14966     1    0.108    0.108
[ bonds ]
14964 14967     1    0.153   186188    0.153   186188
[ constraints ] ; from mdp
14967 14968     1   0.1111   0.1111
[ constraints ] ; from mdp
14967 14969     1   0.1111   0.1111
[ bonds ]
14967 14974     1    0.143   284512    0.143   284512
[ bonds ]
14970 14971     1    0.148   485344    0.148   485344
[ bonds ]
14970 14972     1    0.148   485344    0.148   485344
[ bonds ]
14970 14973     1     0.16   225936     0.16   225936
[ bonds ]
14970 14974     1     0.16   225936     0.16   225936
[ bonds ]
14973 14975     1    0.143   284512    0.143   284512
[ constraints ] ; from mdp
14975 14976     1   0.1111   0.1111
[ constraints ] ; from mdp
14975 14977     1   0.1111   0.1111
[ bonds ]
14975 14978     1   0.1538   186188   0.1538   186188
[ constraints ] ; from mdp
14978 14979     1   0.1111   0.1111
[ bonds ]
14978 14980     1    0.143   284512    0.143   284512
[ bonds ]
14978 14986     1   0.1538   186188   0.1538   186188
[ bonds ]
14980 14981     1   0.1334   125520   0.1334   125520
[ bonds ]
14981 14982     1    0.122   627600    0.122   627600
[ bonds ]
14981 14983     1   0.1522   167360   0.1522   167360
[ constraints ] ; from mdp
14983 14984     1   0.1111   0.1111
[ constraints ] ; from mdp
14983 14985     1   0.1111   0.1111
[ bonds ]
14983 14995     1    0.153   186188    0.153   186188
[ constraints ] ; from mdp
14986 14987     1   0.1111   0.1111
[ constraints ] ; from mdp
14986 14988     1   0.1111   0.1111
[ bonds ]
14986 14989     1    0.143   284512    0.143   284512
[ bonds ]
14989 14990     1   0.1334   125520   0.1334   125520
[ bonds ]
14990 14991     1    0.122   627600    0.122   627600
[ bonds ]
14990 14992     1   0.1522   167360   0.1522   167360
[ constraints ] ; from mdp
14992 14993     1   0.1111   0.1111
[ constraints ] ; from mdp
14992 14994     1   0.1111   0.1111
[ bonds ]
14992 15038     1    0.153   186188    0.153   186188
[ constraints ] ; from mdp
14995 14996     1   0.1111   0.1111
[ constraints ] ; from mdp
14995 14997     1   0.1111   0.1111
[ bonds ]
14995 14998     1    0.153   186188    0.153   186188
[ constraints ] ; from mdp
14998 14999     1   0.1111   0.1111
[ constraints ] ; from mdp
14998 15000     1   0.1111   0.1111
[ bonds ]
14998 15001     1    0.153   186188    0.153   186188
[ constraints ] ; from mdp
15001 15002     1   0.1111   0.1111
[ constraints ] ; from mdp
15001 15003     1   0.1111   0.1111
[ bonds ]
15001 15004     1    0.153   186188    0.153   186188
[ constraints ] ; from mdp
15004 15005     1   0.1111   0.1111
[ constraints ] ; from mdp
15004 15006     1   0.1111   0.1111
[ bonds ]
15004 15007     1    0.153   186188    0.153   186188
[ constraints ] ; from mdp
15007 15008     1   0.1111   0.1111
[ constraints ] ; from mdp
15007 15009     1   0.1111   0.1111
[ bonds ]
15007 15010     1    0.153   186188    0.153   186188
[ constraints ] ; from mdp
15010 15011     1   0.1111   0.1111
[ constraints ] ; from mdp
15010 15012     1   0.1111   0.1111
[ bonds ]
15010 15013     1    0.153   186188    0.153   186188
[ constraints ] ; from mdp
15013 15014     1   0.1111   0.1111
[ constraints ] ; from mdp
15013 15015     1   0.1111   0.1111
[ bonds ]
15013 15016     1    0.153   186188    0.153   186188
[ constraints ] ; from mdp
15016 15017     1   0.1111   0.1111
[ constraints ] ; from mdp
15016 15018     1   0.1111   0.1111
[ bonds ]
15016 15019     1    0.153   186188    0.153   186188
[ constraints ] ; from mdp
15019 15020     1   0.1111   0.1111
[ constraints ] ; from mdp
15019 15021     1   0.1111   0.1111
[ bonds ]
15019 15022     1    0.153   186188    0.153   186188
[ constraints ] ; from mdp
15022 15023     1   0.1111   0.1111
[ constraints ] ; from mdp
15022 15024     1   0.1111   0.1111
[ bonds ]
15022 15025     1    0.153   186188    0.153   186188
[ constraints ] ; from mdp
15025 15026     1   0.1111   0.1111
[ constraints ] ; from mdp
15025 15027     1   0.1111   0.1111
[ bonds ]
15025 15028     1    0.153   186188    0.153   186188
[ constraints ] ; from mdp
15028 15029     1   0.1111   0.1111
[ constraints ] ; from mdp
15028 15030     1   0.1111   0.1111
[ bonds ]
15028 15031     1    0.153   186188    0.153   186188
[ constraints ] ; from mdp
15031 15032     1   0.1111   0.1111
[ constraints ] ; from mdp
15031 15033     1   0.1111   0.1111
[ bonds ]
15031 15034     1   0.1528   186188   0.1528   186188
[ constraints ] ; from mdp
15034 15035     1   0.1111   0.1111
[ constraints ] ; from mdp
15034 15036     1   0.1111   0.1111
[ constraints ] ; from mdp
15034 15037     1   0.1111   0.1111
[ constraints ] ; from mdp
15038 15039     1   0.1111   0.1111
[ constraints ] ; from mdp
15038 15040     1   0.1111   0.1111
[ bonds ]
15038 15041     1    0.153   186188    0.153   186188
[ constraints ] ; from mdp
15041 15042     1   0.1111   0.1111
[ constraints ] ; from mdp
15041 15043     1   0.1111   0.1111
[ bonds ]
15041 15044     1    0.153   186188    0.153   186188
[ constraints ] ; from mdp
15044 15045     1   0.1111   0.1111
[ constraints ] ; from mdp
15044 15046     1   0.1111   0.1111
[ bonds ]
15044 15047     1    0.153   186188    0.153   186188
[ constraints ] ; from mdp
15047 15048     1   0.1111   0.1111
[ constraints ] ; from mdp
15047 15049     1   0.1111   0.1111
[ bonds ]
15047 15050     1    0.153   186188    0.153   186188
[ constraints ] ; from mdp
15050 15051     1   0.1111   0.1111
[ constraints ] ; from mdp
15050 15052     1   0.1111   0.1111
[ bonds ]
15050 15053     1    0.153   186188    0.153   186188
[ constraints ] ; from mdp
15053 15054     1   0.1111   0.1111
[ constraints ] ; from mdp
15053 15055     1   0.1111   0.1111
[ bonds ]
15053 15056     1    0.153   186188    0.153   186188
[ constraints ] ; from mdp
15056 15057     1   0.1111   0.1111
[ constraints ] ; from mdp
15056 15058     1   0.1111   0.1111
[ bonds ]
15056 15059     1    0.153   186188    0.153   186188
[ constraints ] ; from mdp
15059 15060     1   0.1111   0.1111
[ constraints ] ; from mdp
15059 15061     1   0.1111   0.1111
[ bonds ]
15059 15062     1    0.153   186188    0.153   186188
[ constraints ] ; from mdp
15062 15063     1   0.1111   0.1111
[ constraints ] ; from mdp
15062 15064     1   0.1111   0.1111
[ bonds ]
15062 15065     1    0.153   186188    0.153   186188
[ constraints ] ; from mdp
15065 15066     1   0.1111   0.1111
[ constraints ] ; from mdp
15065 15067     1   0.1111   0.1111
[ bonds ]
15065 15068     1    0.153   186188    0.153   186188
[ constraints ] ; from mdp
15068 15069     1   0.1111   0.1111
[ constraints ] ; from mdp
15068 15070     1   0.1111   0.1111
[ bonds ]
15068 15071     1    0.153   186188    0.153   186188
[ constraints ] ; from mdp
15071 15072     1   0.1111   0.1111
[ constraints ] ; from mdp
15071 15073     1   0.1111   0.1111
[ bonds ]
15071 15074     1    0.153   186188    0.153   186188
[ constraints ] ; from mdp
15074 15075     1   0.1111   0.1111
[ constraints ] ; from mdp
15074 15076     1   0.1111   0.1111
[ bonds ]
15074 15077     1   0.1528   186188   0.1528   186188
[ constraints ] ; from mdp
15077 15078     1   0.1111   0.1111
[ constraints ] ; from mdp
15077 15079     1   0.1111   0.1111
[ constraints ] ; from mdp
15077 15080     1   0.1111   0.1111
[ bonds ]
15081 15082     1    0.151   179912    0.151   179912
[ bonds ]
15081 15086     1    0.151   179912    0.151   179912
[ bonds ]
15081 15090     1    0.151   179912    0.151   179912
[ bonds ]
15081 15094     1    0.151   179912    0.151   179912
[ constraints ] ; from mdp
15082 15083     1    0.108    0.108
[ constraints ] ; from mdp
15082 15084     1    0.108    0.108
[ constraints ] ; from mdp
15082 15085     1    0.108    0.108
[ constraints ] ; from mdp
15086 15087     1    0.108    0.108
[ constraints ] ; from mdp
15086 15088     1    0.108    0.108
[ constraints ] ; from mdp
15086 15089     1    0.108    0.108
[ constraints ] ; from mdp
15090 15091     1    0.108    0.108
[ constraints ] ; from mdp
15090 15092     1    0.108    0.108
[ constraints ] ; from mdp
15090 15093     1    0.108    0.108
[ constraints ] ; from mdp
15094 15095     1    0.108    0.108
[ constraints ] ; from mdp
15094 15096     1    0.108    0.108
[ bonds ]
15094 15097     1    0.153   186188    0.153   186188
[ constraints ] ; from mdp
15097 15098     1   0.1111   0.1111
[ constraints ] ; from mdp
15097 15099     1   0.1111   0.1111
[ bonds ]
15097 15104     1    0.143   284512    0.143   284512
[ bonds ]
15100 15101     1    0.148   485344    0.148   485344
[ bonds ]
15100 15102     1    0.148   485344    0.148   485344
[ bonds ]
15100 15103     1     0.16   225936     0.16   225936
[ bonds ]
15100 15104     1     0.16   225936     0.16   225936
[ bonds ]
15103 15105     1    0.143   284512    0.143   284512
[ constraints ] ; from mdp
15105 15106     1   0.1111   0.1111
[ constraints ] ; from mdp
15105 15107     1   0.1111   0.1111
[ bonds ]
15105 15108     1   0.1538   186188   0.1538   186188
[ constraints ] ; from mdp
15108 15109     1   0.1111   0.1111
[ bonds ]
15108 15110     1    0.143   284512    0.143   284512
[ bonds ]
15108 15116     1   0.1538   186188   0.1538   186188
[ bonds ]
15110 15111     1   0.1334   125520   0.1334   125520
[ bonds ]
15111 15112     1    0.122   627600    0.122   627600
[ bonds ]
15111 15113     1   0.1522   167360   0.1522   167360
[ constraints ] ; from mdp
15113 15114     1   0.1111   0.1111
[ constraints ] ; from mdp
15113 15115     1   0.1111   0.1111
[ bonds ]
15113 15125     1    0.153   186188    0.153   186188
[ constraints ] ; from mdp
15116 15117     1   0.1111   0.1111
[ constraints ] ; from mdp
15116 15118     1   0.1111   0.1111
[ bonds ]
15116 15119     1    0.143   284512    0.143   284512
[ bonds ]
15119 15120     1   0.1334   125520   0.1334   125520
[ bonds ]
15120 15121     1    0.122   627600    0.122   627600
[ bonds ]
15120 15122     1   0.1522   167360   0.1522   167360
[ constraints ] ; from mdp
15122 15123     1   0.1111   0.1111
[ constraints ] ; from mdp
15122 15124     1   0.1111   0.1111
[ bonds ]
15122 15168     1    0.153   186188    0.153   186188
[ constraints ] ; from mdp
15125 15126     1   0.1111   0.1111
[ constraints ] ; from mdp
15125 15127     1   0.1111   0.1111
[ bonds ]
15125 15128     1    0.153   186188    0.153   186188
[ constraints ] ; from mdp
15128 15129     1   0.1111   0.1111
[ constraints ] ; from mdp
15128 15130     1   0.1111   0.1111
[ bonds ]
15128 15131     1    0.153   186188    0.153   186188
[ constraints ] ; from mdp
15131 15132     1   0.1111   0.1111
[ constraints ] ; from mdp
15131 15133     1   0.1111   0.1111
[ bonds ]
15131 15134     1    0.153   186188    0.153   186188
[ constraints ] ; from mdp
15134 15135     1   0.1111   0.1111
[ constraints ] ; from mdp
15134 15136     1   0.1111   0.1111
[ bonds ]
15134 15137     1    0.153   186188    0.153   186188
[ constraints ] ; from mdp
15137 15138     1   0.1111   0.1111
[ constraints ] ; from mdp
15137 15139     1   0.1111   0.1111
[ bonds ]
15137 15140     1    0.153   186188    0.153   186188
[ constraints ] ; from mdp
15140 15141     1   0.1111   0.1111
[ constraints ] ; from mdp
15140 15142     1   0.1111   0.1111
[ bonds ]
15140 15143     1    0.153   186188    0.153   186188
[ constraints ] ; from mdp
15143 15144     1   0.1111   0.1111
[ constraints ] ; from mdp
15143 15145     1   0.1111   0.1111
[ bonds ]
15143 15146     1    0.153   186188    0.153   186188
[ constraints ] ; from mdp
15146 15147     1   0.1111   0.1111
[ constraints ] ; from mdp
15146 15148     1   0.1111   0.1111
[ bonds ]
15146 15149     1    0.153   186188    0.153   186188
[ constraints ] ; from mdp
15149 15150     1   0.1111   0.1111
[ constraints ] ; from mdp
15149 15151     1   0.1111   0.1111
[ bonds ]
15149 15152     1    0.153   186188    0.153   186188
[ constraints ] ; from mdp
15152 15153     1   0.1111   0.1111
[ constraints ] ; from mdp
15152 15154     1   0.1111   0.1111
[ bonds ]
15152 15155     1    0.153   186188    0.153   186188
[ constraints ] ; from mdp
15155 15156     1   0.1111   0.1111
[ constraints ] ; from mdp
15155 15157     1   0.1111   0.1111
[ bonds ]
15155 15158     1    0.153   186188    0.153   186188
[ constraints ] ; from mdp
15158 15159     1   0.1111   0.1111
[ constraints ] ; from mdp
15158 15160     1   0.1111   0.1111
[ bonds ]
15158 15161     1    0.153   186188    0.153   186188
[ constraints ] ; from mdp
15161 15162     1   0.1111   0.1111
[ constraints ] ; from mdp
15161 15163     1   0.1111   0.1111
[ bonds ]
15161 15164     1   0.1528   186188   0.1528   186188
[ constraints ] ; from mdp
15164 15165     1   0.1111   0.1111
[ constraints ] ; from mdp
15164 15166     1   0.1111   0.1111
[ constraints ] ; from mdp
15164 15167     1   0.1111   0.1111
[ constraints ] ; from mdp
15168 15169     1   0.1111   0.1111
[ constraints ] ; from mdp
15168 15170     1   0.1111   0.1111
[ bonds ]
15168 15171     1    0.153   186188    0.153   186188
[ constraints ] ; from mdp
15171 15172     1   0.1111   0.1111
[ constraints ] ; from mdp
15171 15173     1   0.1111   0.1111
[ bonds ]
15171 15174     1    0.153   186188    0.153   186188
[ constraints ] ; from mdp
15174 15175     1   0.1111   0.1111
[ constraints ] ; from mdp
15174 15176     1   0.1111   0.1111
[ bonds ]
15174 15177     1    0.153   186188    0.153   186188
[ constraints ] ; from mdp
15177 15178     1   0.1111   0.1111
[ constraints ] ; from mdp
15177 15179     1   0.1111   0.1111
[ bonds ]
15177 15180     1    0.153   186188    0.153   186188
[ constraints ] ; from mdp
15180 15181     1   0.1111   0.1111
[ constraints ] ; from mdp
15180 15182     1   0.1111   0.1111
[ bonds ]
15180 15183     1    0.153   186188    0.153   186188
[ constraints ] ; from mdp
15183 15184     1   0.1111   0.1111
[ constraints ] ; from mdp
15183 15185     1   0.1111   0.1111
[ bonds ]
15183 15186     1    0.153   186188    0.153   186188
[ constraints ] ; from mdp
15186 15187     1   0.1111   0.1111
[ constraints ] ; from mdp
15186 15188     1   0.1111   0.1111
[ bonds ]
15186 15189     1    0.153   186188    0.153   186188
[ constraints ] ; from mdp
15189 15190     1   0.1111   0.1111
[ constraints ] ; from mdp
15189 15191     1   0.1111   0.1111
[ bonds ]
15189 15192     1    0.153   186188    0.153   186188
[ constraints ] ; from mdp
15192 15193     1   0.1111   0.1111
[ constraints ] ; from mdp
15192 15194     1   0.1111   0.1111
[ bonds ]
15192 15195     1    0.153   186188    0.153   186188
[ constraints ] ; from mdp
15195 15196     1   0.1111   0.1111
[ constraints ] ; from mdp
15195 15197     1   0.1111   0.1111
[ bonds ]
15195 15198     1    0.153   186188    0.153   186188
[ constraints ] ; from mdp
15198 15199     1   0.1111   0.1111
[ constraints ] ; from mdp
15198 15200     1   0.1111   0.1111
[ bonds ]
15198 15201     1    0.153   186188    0.153   186188
[ constraints ] ; from mdp
15201 15202     1   0.1111   0.1111
[ constraints ] ; from mdp
15201 15203     1   0.1111   0.1111
[ bonds ]
15201 15204     1    0.153   186188    0.153   186188
[ constraints ] ; from mdp
15204 15205     1   0.1111   0.1111
[ constraints ] ; from mdp
15204 15206     1   0.1111   0.1111
[ bonds ]
15204 15207     1   0.1528   186188   0.1528   186188
[ constraints ] ; from mdp
15207 15208     1   0.1111   0.1111
[ constraints ] ; from mdp
15207 15209     1   0.1111   0.1111
[ constraints ] ; from mdp
15207 15210     1   0.1111   0.1111
[ bonds ]
15211 15212     1    0.151   179912    0.151   179912
[ bonds ]
15211 15216     1    0.151   179912    0.151   179912
[ bonds ]
15211 15220     1    0.151   179912    0.151   179912
[ bonds ]
15211 15224     1    0.151   179912    0.151   179912
[ constraints ] ; from mdp
15212 15213     1    0.108    0.108
[ constraints ] ; from mdp
15212 15214     1    0.108    0.108
[ constraints ] ; from mdp
15212 15215     1    0.108    0.108
[ constraints ] ; from mdp
15216 15217     1    0.108    0.108
[ constraints ] ; from mdp
15216 15218     1    0.108    0.108
[ constraints ] ; from mdp
15216 15219     1    0.108    0.108
[ constraints ] ; from mdp
15220 15221     1    0.108    0.108
[ constraints ] ; from mdp
15220 15222     1    0.108    0.108
[ constraints ] ; from mdp
15220 15223     1    0.108    0.108
[ constraints ] ; from mdp
15224 15225     1    0.108    0.108
[ constraints ] ; from mdp
15224 15226     1    0.108    0.108
[ bonds ]
15224 15227     1    0.153   186188    0.153   186188
[ constraints ] ; from mdp
15227 15228     1   0.1111   0.1111
[ constraints ] ; from mdp
15227 15229     1   0.1111   0.1111
[ bonds ]
15227 15234     1    0.143   284512    0.143   284512
[ bonds ]
15230 15231     1    0.148   485344    0.148   485344
[ bonds ]
15230 15232     1    0.148   485344    0.148   485344
[ bonds ]
15230 15233     1     0.16   225936     0.16   225936
[ bonds ]
15230 15234     1     0.16   225936     0.16   225936
[ bonds ]
15233 15235     1    0.143   284512    0.143   284512
[ constraints ] ; from mdp
15235 15236     1   0.1111   0.1111
[ constraints ] ; from mdp
15235 15237     1   0.1111   0.1111
[ bonds ]
15235 15238     1   0.1538   186188   0.1538   186188
[ constraints ] ; from mdp
15238 15239     1   0.1111   0.1111
[ bonds ]
15238 15240     1    0.143   284512    0.143   284512
[ bonds ]
15238 15246     1   0.1538   186188   0.1538   186188
[ bonds ]
15240 15241     1   0.1334   125520   0.1334   125520
[ bonds ]
15241 15242     1    0.122   627600    0.122   627600
[ bonds ]
15241 15243     1   0.1522   167360   0.1522   167360
[ constraints ] ; from mdp
15243 15244     1   0.1111   0.1111
[ constraints ] ; from mdp
15243 15245     1   0.1111   0.1111
[ bonds ]
15243 15255     1    0.153   186188    0.153   186188
[ constraints ] ; from mdp
15246 15247     1   0.1111   0.1111
[ constraints ] ; from mdp
15246 15248     1   0.1111   0.1111
[ bonds ]
15246 15249     1    0.143   284512    0.143   284512
[ bonds ]
15249 15250     1   0.1334   125520   0.1334   125520
[ bonds ]
15250 15251     1    0.122   627600    0.122   627600
[ bonds ]
15250 15252     1   0.1522   167360   0.1522   167360
[ constraints ] ; from mdp
15252 15253     1   0.1111   0.1111
[ constraints ] ; from mdp
15252 15254     1   0.1111   0.1111
[ bonds ]
15252 15298     1    0.153   186188    0.153   186188
[ constraints ] ; from mdp
15255 15256     1   0.1111   0.1111
[ constraints ] ; from mdp
15255 15257     1   0.1111   0.1111
[ bonds ]
15255 15258     1    0.153   186188    0.153   186188
[ constraints ] ; from mdp
15258 15259     1   0.1111   0.1111
[ constraints ] ; from mdp
15258 15260     1   0.1111   0.1111
[ bonds ]
15258 15261     1    0.153   186188    0.153   186188
[ constraints ] ; from mdp
15261 15262     1   0.1111   0.1111
[ constraints ] ; from mdp
15261 15263     1   0.1111   0.1111
[ bonds ]
15261 15264     1    0.153   186188    0.153   186188
[ constraints ] ; from mdp
15264 15265     1   0.1111   0.1111
[ constraints ] ; from mdp
15264 15266     1   0.1111   0.1111
[ bonds ]
15264 15267     1    0.153   186188    0.153   186188
[ constraints ] ; from mdp
15267 15268     1   0.1111   0.1111
[ constraints ] ; from mdp
15267 15269     1   0.1111   0.1111
[ bonds ]
15267 15270     1    0.153   186188    0.153   186188
[ constraints ] ; from mdp
15270 15271     1   0.1111   0.1111
[ constraints ] ; from mdp
15270 15272     1   0.1111   0.1111
[ bonds ]
15270 15273     1    0.153   186188    0.153   186188
[ constraints ] ; from mdp
15273 15274     1   0.1111   0.1111
[ constraints ] ; from mdp
15273 15275     1   0.1111   0.1111
[ bonds ]
15273 15276     1    0.153   186188    0.153   186188
[ constraints ] ; from mdp
15276 15277     1   0.1111   0.1111
[ constraints ] ; from mdp
15276 15278     1   0.1111   0.1111
[ bonds ]
15276 15279     1    0.153   186188    0.153   186188
[ constraints ] ; from mdp
15279 15280     1   0.1111   0.1111
[ constraints ] ; from mdp
15279 15281     1   0.1111   0.1111
[ bonds ]
15279 15282     1    0.153   186188    0.153   186188
[ constraints ] ; from mdp
15282 15283     1   0.1111   0.1111
[ constraints ] ; from mdp
15282 15284     1   0.1111   0.1111
[ bonds ]
15282 15285     1    0.153   186188    0.153   186188
[ constraints ] ; from mdp
15285 15286     1   0.1111   0.1111
[ constraints ] ; from mdp
15285 15287     1   0.1111   0.1111
[ bonds ]
15285 15288     1    0.153   186188    0.153   186188
[ constraints ] ; from mdp
15288 15289     1   0.1111   0.1111
[ constraints ] ; from mdp
15288 15290     1   0.1111   0.1111
[ bonds ]
15288 15291     1    0.153   186188    0.153   186188
[ constraints ] ; from mdp
15291 15292     1   0.1111   0.1111
[ constraints ] ; from mdp
15291 15293     1   0.1111   0.1111
[ bonds ]
15291 15294     1   0.1528   186188   0.1528   186188
[ constraints ] ; from mdp
15294 15295     1   0.1111   0.1111
[ constraints ] ; from mdp
15294 15296     1   0.1111   0.1111
[ constraints ] ; from mdp
15294 15297     1   0.1111   0.1111
[ constraints ] ; from mdp
15298 15299     1   0.1111   0.1111
[ constraints ] ; from mdp
15298 15300     1   0.1111   0.1111
[ bonds ]
15298 15301     1    0.153   186188    0.153   186188
[ constraints ] ; from mdp
15301 15302     1   0.1111   0.1111
[ constraints ] ; from mdp
15301 15303     1   0.1111   0.1111
[ bonds ]
15301 15304     1    0.153   186188    0.153   186188
[ constraints ] ; from mdp
15304 15305     1   0.1111   0.1111
[ constraints ] ; from mdp
15304 15306     1   0.1111   0.1111
[ bonds ]
15304 15307     1    0.153   186188    0.153   186188
[ constraints ] ; from mdp
15307 15308     1   0.1111   0.1111
[ constraints ] ; from mdp
15307 15309     1   0.1111   0.1111
[ bonds ]
15307 15310     1    0.153   186188    0.153   186188
[ constraints ] ; from mdp
15310 15311     1   0.1111   0.1111
[ constraints ] ; from mdp
15310 15312     1   0.1111   0.1111
[ bonds ]
15310 15313     1    0.153   186188    0.153   186188
[ constraints ] ; from mdp
15313 15314     1   0.1111   0.1111
[ constraints ] ; from mdp
15313 15315     1   0.1111   0.1111
[ bonds ]
15313 15316     1    0.153   186188    0.153   186188
[ constraints ] ; from mdp
15316 15317     1   0.1111   0.1111
[ constraints ] ; from mdp
15316 15318     1   0.1111   0.1111
[ bonds ]
15316 15319     1    0.153   186188    0.153   186188
[ constraints ] ; from mdp
15319 15320     1   0.1111   0.1111
[ constraints ] ; from mdp
15319 15321     1   0.1111   0.1111
[ bonds ]
15319 15322     1    0.153   186188    0.153   186188
[ constraints ] ; from mdp
15322 15323     1   0.1111   0.1111
[ constraints ] ; from mdp
15322 15324     1   0.1111   0.1111
[ bonds ]
15322 15325     1    0.153   186188    0.153   186188
[ constraints ] ; from mdp
15325 15326     1   0.1111   0.1111
[ constraints ] ; from mdp
15325 15327     1   0.1111   0.1111
[ bonds ]
15325 15328     1    0.153   186188    0.153   186188
[ constraints ] ; from mdp
15328 15329     1   0.1111   0.1111
[ constraints ] ; from mdp
15328 15330     1   0.1111   0.1111
[ bonds ]
15328 15331     1    0.153   186188    0.153   186188
[ constraints ] ; from mdp
15331 15332     1   0.1111   0.1111
[ constraints ] ; from mdp
15331 15333     1   0.1111   0.1111
[ bonds ]
15331 15334     1    0.153   186188    0.153   186188
[ constraints ] ; from mdp
15334 15335     1   0.1111   0.1111
[ constraints ] ; from mdp
15334 15336     1   0.1111   0.1111
[ bonds ]
15334 15337     1   0.1528   186188   0.1528   186188
[ constraints ] ; from mdp
15337 15338     1   0.1111   0.1111
[ constraints ] ; from mdp
15337 15339     1   0.1111   0.1111
[ constraints ] ; from mdp
15337 15340     1   0.1111   0.1111
[ bonds ]
15341 15342     1    0.151   179912    0.151   179912
[ bonds ]
15341 15346     1    0.151   179912    0.151   179912
[ bonds ]
15341 15350     1    0.151   179912    0.151   179912
[ bonds ]
15341 15354     1    0.151   179912    0.151   179912
[ constraints ] ; from mdp
15342 15343     1    0.108    0.108
[ constraints ] ; from mdp
15342 15344     1    0.108    0.108
[ constraints ] ; from mdp
15342 15345     1    0.108    0.108
[ constraints ] ; from mdp
15346 15347     1    0.108    0.108
[ constraints ] ; from mdp
15346 15348     1    0.108    0.108
[ constraints ] ; from mdp
15346 15349     1    0.108    0.108
[ constraints ] ; from mdp
15350 15351     1    0.108    0.108
[ constraints ] ; from mdp
15350 15352     1    0.108    0.108
[ constraints ] ; from mdp
15350 15353     1    0.108    0.108
[ constraints ] ; from mdp
15354 15355     1    0.108    0.108
[ constraints ] ; from mdp
15354 15356     1    0.108    0.108
[ bonds ]
15354 15357     1    0.153   186188    0.153   186188
[ constraints ] ; from mdp
15357 15358     1   0.1111   0.1111
[ constraints ] ; from mdp
15357 15359     1   0.1111   0.1111
[ bonds ]
15357 15364     1    0.143   284512    0.143   284512
[ bonds ]
15360 15361     1    0.148   485344    0.148   485344
[ bonds ]
15360 15362     1    0.148   485344    0.148   485344
[ bonds ]
15360 15363     1     0.16   225936     0.16   225936
[ bonds ]
15360 15364     1     0.16   225936     0.16   225936
[ bonds ]
15363 15365     1    0.143   284512    0.143   284512
[ constraints ] ; from mdp
15365 15366     1   0.1111   0.1111
[ constraints ] ; from mdp
15365 15367     1   0.1111   0.1111
[ bonds ]
15365 15368     1   0.1538   186188   0.1538   186188
[ constraints ] ; from mdp
15368 15369     1   0.1111   0.1111
[ bonds ]
15368 15370     1    0.143   284512    0.143   284512
[ bonds ]
15368 15376     1   0.1538   186188   0.1538   186188
[ bonds ]
15370 15371     1   0.1334   125520   0.1334   125520
[ bonds ]
15371 15372     1    0.122   627600    0.122   627600
[ bonds ]
15371 15373     1   0.1522   167360   0.1522   167360
[ constraints ] ; from mdp
15373 15374     1   0.1111   0.1111
[ constraints ] ; from mdp
15373 15375     1   0.1111   0.1111
[ bonds ]
15373 15385     1    0.153   186188    0.153   186188
[ constraints ] ; from mdp
15376 15377     1   0.1111   0.1111
[ constraints ] ; from mdp
15376 15378     1   0.1111   0.1111
[ bonds ]
15376 15379     1    0.143   284512    0.143   284512
[ bonds ]
15379 15380     1   0.1334   125520   0.1334   125520
[ bonds ]
15380 15381     1    0.122   627600    0.122   627600
[ bonds ]
15380 15382     1   0.1522   167360   0.1522   167360
[ constraints ] ; from mdp
15382 15383     1   0.1111   0.1111
[ constraints ] ; from mdp
15382 15384     1   0.1111   0.1111
[ bonds ]
15382 15428     1    0.153   186188    0.153   186188
[ constraints ] ; from mdp
15385 15386     1   0.1111   0.1111
[ constraints ] ; from mdp
15385 15387     1   0.1111   0.1111
[ bonds ]
15385 15388     1    0.153   186188    0.153   186188
[ constraints ] ; from mdp
15388 15389     1   0.1111   0.1111
[ constraints ] ; from mdp
15388 15390     1   0.1111   0.1111
[ bonds ]
15388 15391     1    0.153   186188    0.153   186188
[ constraints ] ; from mdp
15391 15392     1   0.1111   0.1111
[ constraints ] ; from mdp
15391 15393     1   0.1111   0.1111
[ bonds ]
15391 15394     1    0.153   186188    0.153   186188
[ constraints ] ; from mdp
15394 15395     1   0.1111   0.1111
[ constraints ] ; from mdp
15394 15396     1   0.1111   0.1111
[ bonds ]
15394 15397     1    0.153   186188    0.153   186188
[ constraints ] ; from mdp
15397 15398     1   0.1111   0.1111
[ constraints ] ; from mdp
15397 15399     1   0.1111   0.1111
[ bonds ]
15397 15400     1    0.153   186188    0.153   186188
[ constraints ] ; from mdp
15400 15401     1   0.1111   0.1111
[ constraints ] ; from mdp
15400 15402     1   0.1111   0.1111
[ bonds ]
15400 15403     1    0.153   186188    0.153   186188
[ constraints ] ; from mdp
15403 15404     1   0.1111   0.1111
[ constraints ] ; from mdp
15403 15405     1   0.1111   0.1111
[ bonds ]
15403 15406     1    0.153   186188    0.153   186188
[ constraints ] ; from mdp
15406 15407     1   0.1111   0.1111
[ constraints ] ; from mdp
15406 15408     1   0.1111   0.1111
[ bonds ]
15406 15409     1    0.153   186188    0.153   186188
[ constraints ] ; from mdp
15409 15410     1   0.1111   0.1111
[ constraints ] ; from mdp
15409 15411     1   0.1111   0.1111
[ bonds ]
15409 15412     1    0.153   186188    0.153   186188
[ constraints ] ; from mdp
15412 15413     1   0.1111   0.1111
[ constraints ] ; from mdp
15412 15414     1   0.1111   0.1111
[ bonds ]
15412 15415     1    0.153   186188    0.153   186188
[ constraints ] ; from mdp
15415 15416     1   0.1111   0.1111
[ constraints ] ; from mdp
15415 15417     1   0.1111   0.1111
[ bonds ]
15415 15418     1    0.153   186188    0.153   186188
[ constraints ] ; from mdp
15418 15419     1   0.1111   0.1111
[ constraints ] ; from mdp
15418 15420     1   0.1111   0.1111
[ bonds ]
15418 15421     1    0.153   186188    0.153   186188
[ constraints ] ; from mdp
15421 15422     1   0.1111   0.1111
[ constraints ] ; from mdp
15421 15423     1   0.1111   0.1111
[ bonds ]
15421 15424     1   0.1528   186188   0.1528   186188
[ constraints ] ; from mdp
15424 15425     1   0.1111   0.1111
[ constraints ] ; from mdp
15424 15426     1   0.1111   0.1111
[ constraints ] ; from mdp
15424 15427     1   0.1111   0.1111
[ constraints ] ; from mdp
15428 15429     1   0.1111   0.1111
[ constraints ] ; from mdp
15428 15430     1   0.1111   0.1111
[ bonds ]
15428 15431     1    0.153   186188    0.153   186188
[ constraints ] ; from mdp
15431 15432     1   0.1111   0.1111
[ constraints ] ; from mdp
15431 15433     1   0.1111   0.1111
[ bonds ]
15431 15434     1    0.153   186188    0.153   186188
[ constraints ] ; from mdp
15434 15435     1   0.1111   0.1111
[ constraints ] ; from mdp
15434 15436     1   0.1111   0.1111
[ bonds ]
15434 15437     1    0.153   186188    0.153   186188
[ constraints ] ; from mdp
15437 15438     1   0.1111   0.1111
[ constraints ] ; from mdp
15437 15439     1   0.1111   0.1111
[ bonds ]
15437 15440     1    0.153   186188    0.153   186188
[ constraints ] ; from mdp
15440 15441     1   0.1111   0.1111
[ constraints ] ; from mdp
15440 15442     1   0.1111   0.1111
[ bonds ]
15440 15443     1    0.153   186188    0.153   186188
[ constraints ] ; from mdp
15443 15444     1   0.1111   0.1111
[ constraints ] ; from mdp
15443 15445     1   0.1111   0.1111
[ bonds ]
15443 15446     1    0.153   186188    0.153   186188
[ constraints ] ; from mdp
15446 15447     1   0.1111   0.1111
[ constraints ] ; from mdp
15446 15448     1   0.1111   0.1111
[ bonds ]
15446 15449     1    0.153   186188    0.153   186188
[ constraints ] ; from mdp
15449 15450     1   0.1111   0.1111
[ constraints ] ; from mdp
15449 15451     1   0.1111   0.1111
[ bonds ]
15449 15452     1    0.153   186188    0.153   186188
[ constraints ] ; from mdp
15452 15453     1   0.1111   0.1111
[ constraints ] ; from mdp
15452 15454     1   0.1111   0.1111
[ bonds ]
15452 15455     1    0.153   186188    0.153   186188
[ constraints ] ; from mdp
15455 15456     1   0.1111   0.1111
[ constraints ] ; from mdp
15455 15457     1   0.1111   0.1111
[ bonds ]
15455 15458     1    0.153   186188    0.153   186188
[ constraints ] ; from mdp
15458 15459     1   0.1111   0.1111
[ constraints ] ; from mdp
15458 15460     1   0.1111   0.1111
[ bonds ]
15458 15461     1    0.153   186188    0.153   186188
[ constraints ] ; from mdp
15461 15462     1   0.1111   0.1111
[ constraints ] ; from mdp
15461 15463     1   0.1111   0.1111
[ bonds ]
15461 15464     1    0.153   186188    0.153   186188
[ constraints ] ; from mdp
15464 15465     1   0.1111   0.1111
[ constraints ] ; from mdp
15464 15466     1   0.1111   0.1111
[ bonds ]
15464 15467     1   0.1528   186188   0.1528   186188
[ constraints ] ; from mdp
15467 15468     1   0.1111   0.1111
[ constraints ] ; from mdp
15467 15469     1   0.1111   0.1111
[ constraints ] ; from mdp
15467 15470     1   0.1111   0.1111
[ bonds ]
15471 15472     1    0.151   179912    0.151   179912
[ bonds ]
15471 15476     1    0.151   179912    0.151   179912
[ bonds ]
15471 15480     1    0.151   179912    0.151   179912
[ bonds ]
15471 15484     1    0.151   179912    0.151   179912
[ constraints ] ; from mdp
15472 15473     1    0.108    0.108
[ constraints ] ; from mdp
15472 15474     1    0.108    0.108
[ constraints ] ; from mdp
15472 15475     1    0.108    0.108
[ constraints ] ; from mdp
15476 15477     1    0.108    0.108
[ constraints ] ; from mdp
15476 15478     1    0.108    0.108
[ constraints ] ; from mdp
15476 15479     1    0.108    0.108
[ constraints ] ; from mdp
15480 15481     1    0.108    0.108
[ constraints ] ; from mdp
15480 15482     1    0.108    0.108
[ constraints ] ; from mdp
15480 15483     1    0.108    0.108
[ constraints ] ; from mdp
15484 15485     1    0.108    0.108
[ constraints ] ; from mdp
15484 15486     1    0.108    0.108
[ bonds ]
15484 15487     1    0.153   186188    0.153   186188
[ constraints ] ; from mdp
15487 15488     1   0.1111   0.1111
[ constraints ] ; from mdp
15487 15489     1   0.1111   0.1111
[ bonds ]
15487 15494     1    0.143   284512    0.143   284512
[ bonds ]
15490 15491     1    0.148   485344    0.148   485344
[ bonds ]
15490 15492     1    0.148   485344    0.148   485344
[ bonds ]
15490 15493     1     0.16   225936     0.16   225936
[ bonds ]
15490 15494     1     0.16   225936     0.16   225936
[ bonds ]
15493 15495     1    0.143   284512    0.143   284512
[ constraints ] ; from mdp
15495 15496     1   0.1111   0.1111
[ constraints ] ; from mdp
15495 15497     1   0.1111   0.1111
[ bonds ]
15495 15498     1   0.1538   186188   0.1538   186188
[ constraints ] ; from mdp
15498 15499     1   0.1111   0.1111
[ bonds ]
15498 15500     1    0.143   284512    0.143   284512
[ bonds ]
15498 15506     1   0.1538   186188   0.1538   186188
[ bonds ]
15500 15501     1   0.1334   125520   0.1334   125520
[ bonds ]
15501 15502     1    0.122   627600    0.122   627600
[ bonds ]
15501 15503     1   0.1522   167360   0.1522   167360
[ constraints ] ; from mdp
15503 15504     1   0.1111   0.1111
[ constraints ] ; from mdp
15503 15505     1   0.1111   0.1111
[ bonds ]
15503 15515     1    0.153   186188    0.153   186188
[ constraints ] ; from mdp
15506 15507     1   0.1111   0.1111
[ constraints ] ; from mdp
15506 15508     1   0.1111   0.1111
[ bonds ]
15506 15509     1    0.143   284512    0.143   284512
[ bonds ]
15509 15510     1   0.1334   125520   0.1334   125520
[ bonds ]
15510 15511     1    0.122   627600    0.122   627600
[ bonds ]
15510 15512     1   0.1522   167360   0.1522   167360
[ constraints ] ; from mdp
15512 15513     1   0.1111   0.1111
[ constraints ] ; from mdp
15512 15514     1   0.1111   0.1111
[ bonds ]
15512 15558     1    0.153   186188    0.153   186188
[ constraints ] ; from mdp
15515 15516     1   0.1111   0.1111
[ constraints ] ; from mdp
15515 15517     1   0.1111   0.1111
[ bonds ]
15515 15518     1    0.153   186188    0.153   186188
[ constraints ] ; from mdp
15518 15519     1   0.1111   0.1111
[ constraints ] ; from mdp
15518 15520     1   0.1111   0.1111
[ bonds ]
15518 15521     1    0.153   186188    0.153   186188
[ constraints ] ; from mdp
15521 15522     1   0.1111   0.1111
[ constraints ] ; from mdp
15521 15523     1   0.1111   0.1111
[ bonds ]
15521 15524     1    0.153   186188    0.153   186188
[ constraints ] ; from mdp
15524 15525     1   0.1111   0.1111
[ constraints ] ; from mdp
15524 15526     1   0.1111   0.1111
[ bonds ]
15524 15527     1    0.153   186188    0.153   186188
[ constraints ] ; from mdp
15527 15528     1   0.1111   0.1111
[ constraints ] ; from mdp
15527 15529     1   0.1111   0.1111
[ bonds ]
15527 15530     1    0.153   186188    0.153   186188
[ constraints ] ; from mdp
15530 15531     1   0.1111   0.1111
[ constraints ] ; from mdp
15530 15532     1   0.1111   0.1111
[ bonds ]
15530 15533     1    0.153   186188    0.153   186188
[ constraints ] ; from mdp
15533 15534     1   0.1111   0.1111
[ constraints ] ; from mdp
15533 15535     1   0.1111   0.1111
[ bonds ]
15533 15536     1    0.153   186188    0.153   186188
[ constraints ] ; from mdp
15536 15537     1   0.1111   0.1111
[ constraints ] ; from mdp
15536 15538     1   0.1111   0.1111
[ bonds ]
15536 15539     1    0.153   186188    0.153   186188
[ constraints ] ; from mdp
15539 15540     1   0.1111   0.1111
[ constraints ] ; from mdp
15539 15541     1   0.1111   0.1111
[ bonds ]
15539 15542     1    0.153   186188    0.153   186188
[ constraints ] ; from mdp
15542 15543     1   0.1111   0.1111
[ constraints ] ; from mdp
15542 15544     1   0.1111   0.1111
[ bonds ]
15542 15545     1    0.153   186188    0.153   186188
[ constraints ] ; from mdp
15545 15546     1   0.1111   0.1111
[ constraints ] ; from mdp
15545 15547     1   0.1111   0.1111
[ bonds ]
15545 15548     1    0.153   186188    0.153   186188
[ constraints ] ; from mdp
15548 15549     1   0.1111   0.1111
[ constraints ] ; from mdp
15548 15550     1   0.1111   0.1111
[ bonds ]
15548 15551     1    0.153   186188    0.153   186188
[ constraints ] ; from mdp
15551 15552     1   0.1111   0.1111
[ constraints ] ; from mdp
15551 15553     1   0.1111   0.1111
[ bonds ]
15551 15554     1   0.1528   186188   0.1528   186188
[ constraints ] ; from mdp
15554 15555     1   0.1111   0.1111
[ constraints ] ; from mdp
15554 15556     1   0.1111   0.1111
[ constraints ] ; from mdp
15554 15557     1   0.1111   0.1111
[ constraints ] ; from mdp
15558 15559     1   0.1111   0.1111
[ constraints ] ; from mdp
15558 15560     1   0.1111   0.1111
[ bonds ]
15558 15561     1    0.153   186188    0.153   186188
[ constraints ] ; from mdp
15561 15562     1   0.1111   0.1111
[ constraints ] ; from mdp
15561 15563     1   0.1111   0.1111
[ bonds ]
15561 15564     1    0.153   186188    0.153   186188
[ constraints ] ; from mdp
15564 15565     1   0.1111   0.1111
[ constraints ] ; from mdp
15564 15566     1   0.1111   0.1111
[ bonds ]
15564 15567     1    0.153   186188    0.153   186188
[ constraints ] ; from mdp
15567 15568     1   0.1111   0.1111
[ constraints ] ; from mdp
15567 15569     1   0.1111   0.1111
[ bonds ]
15567 15570     1    0.153   186188    0.153   186188
[ constraints ] ; from mdp
15570 15571     1   0.1111   0.1111
[ constraints ] ; from mdp
15570 15572     1   0.1111   0.1111
[ bonds ]
15570 15573     1    0.153   186188    0.153   186188
[ constraints ] ; from mdp
15573 15574     1   0.1111   0.1111
[ constraints ] ; from mdp
15573 15575     1   0.1111   0.1111
[ bonds ]
15573 15576     1    0.153   186188    0.153   186188
[ constraints ] ; from mdp
15576 15577     1   0.1111   0.1111
[ constraints ] ; from mdp
15576 15578     1   0.1111   0.1111
[ bonds ]
15576 15579     1    0.153   186188    0.153   186188
[ constraints ] ; from mdp
15579 15580     1   0.1111   0.1111
[ constraints ] ; from mdp
15579 15581     1   0.1111   0.1111
[ bonds ]
15579 15582     1    0.153   186188    0.153   186188
[ constraints ] ; from mdp
15582 15583     1   0.1111   0.1111
[ constraints ] ; from mdp
15582 15584     1   0.1111   0.1111
[ bonds ]
15582 15585     1    0.153   186188    0.153   186188
[ constraints ] ; from mdp
15585 15586     1   0.1111   0.1111
[ constraints ] ; from mdp
15585 15587     1   0.1111   0.1111
[ bonds ]
15585 15588     1    0.153   186188    0.153   186188
[ constraints ] ; from mdp
15588 15589     1   0.1111   0.1111
[ constraints ] ; from mdp
15588 15590     1   0.1111   0.1111
[ bonds ]
15588 15591     1    0.153   186188    0.153   186188
[ constraints ] ; from mdp
15591 15592     1   0.1111   0.1111
[ constraints ] ; from mdp
15591 15593     1   0.1111   0.1111
[ bonds ]
15591 15594     1    0.153   186188    0.153   186188
[ constraints ] ; from mdp
15594 15595     1   0.1111   0.1111
[ constraints ] ; from mdp
15594 15596     1   0.1111   0.1111
[ bonds ]
15594 15597     1   0.1528   186188   0.1528   186188
[ constraints ] ; from mdp
15597 15598     1   0.1111   0.1111
[ constraints ] ; from mdp
15597 15599     1   0.1111   0.1111
[ constraints ] ; from mdp
15597 15600     1   0.1111   0.1111
[ bonds ]
15601 15602     1    0.151   179912    0.151   179912
[ bonds ]
15601 15606     1    0.151   179912    0.151   179912
[ bonds ]
15601 15610     1    0.151   179912    0.151   179912
[ bonds ]
15601 15614     1    0.151   179912    0.151   179912
[ constraints ] ; from mdp
15602 15603     1    0.108    0.108
[ constraints ] ; from mdp
15602 15604     1    0.108    0.108
[ constraints ] ; from mdp
15602 15605     1    0.108    0.108
[ constraints ] ; from mdp
15606 15607     1    0.108    0.108
[ constraints ] ; from mdp
15606 15608     1    0.108    0.108
[ constraints ] ; from mdp
15606 15609     1    0.108    0.108
[ constraints ] ; from mdp
15610 15611     1    0.108    0.108
[ constraints ] ; from mdp
15610 15612     1    0.108    0.108
[ constraints ] ; from mdp
15610 15613     1    0.108    0.108
[ constraints ] ; from mdp
15614 15615     1    0.108    0.108
[ constraints ] ; from mdp
15614 15616     1    0.108    0.108
[ bonds ]
15614 15617     1    0.153   186188    0.153   186188
[ constraints ] ; from mdp
15617 15618     1   0.1111   0.1111
[ constraints ] ; from mdp
15617 15619     1   0.1111   0.1111
[ bonds ]
15617 15624     1    0.143   284512    0.143   284512
[ bonds ]
15620 15621     1    0.148   485344    0.148   485344
[ bonds ]
15620 15622     1    0.148   485344    0.148   485344
[ bonds ]
15620 15623     1     0.16   225936     0.16   225936
[ bonds ]
15620 15624     1     0.16   225936     0.16   225936
[ bonds ]
15623 15625     1    0.143   284512    0.143   284512
[ constraints ] ; from mdp
15625 15626     1   0.1111   0.1111
[ constraints ] ; from mdp
15625 15627     1   0.1111   0.1111
[ bonds ]
15625 15628     1   0.1538   186188   0.1538   186188
[ constraints ] ; from mdp
15628 15629     1   0.1111   0.1111
[ bonds ]
15628 15630     1    0.143   284512    0.143   284512
[ bonds ]
15628 15636     1   0.1538   186188   0.1538   186188
[ bonds ]
15630 15631     1   0.1334   125520   0.1334   125520
[ bonds ]
15631 15632     1    0.122   627600    0.122   627600
[ bonds ]
15631 15633     1   0.1522   167360   0.1522   167360
[ constraints ] ; from mdp
15633 15634     1   0.1111   0.1111
[ constraints ] ; from mdp
15633 15635     1   0.1111   0.1111
[ bonds ]
15633 15645     1    0.153   186188    0.153   186188
[ constraints ] ; from mdp
15636 15637     1   0.1111   0.1111
[ constraints ] ; from mdp
15636 15638     1   0.1111   0.1111
[ bonds ]
15636 15639     1    0.143   284512    0.143   284512
[ bonds ]
15639 15640     1   0.1334   125520   0.1334   125520
[ bonds ]
15640 15641     1    0.122   627600    0.122   627600
[ bonds ]
15640 15642     1   0.1522   167360   0.1522   167360
[ constraints ] ; from mdp
15642 15643     1   0.1111   0.1111
[ constraints ] ; from mdp
15642 15644     1   0.1111   0.1111
[ bonds ]
15642 15688     1    0.153   186188    0.153   186188
[ constraints ] ; from mdp
15645 15646     1   0.1111   0.1111
[ constraints ] ; from mdp
15645 15647     1   0.1111   0.1111
[ bonds ]
15645 15648     1    0.153   186188    0.153   186188
[ constraints ] ; from mdp
15648 15649     1   0.1111   0.1111
[ constraints ] ; from mdp
15648 15650     1   0.1111   0.1111
[ bonds ]
15648 15651     1    0.153   186188    0.153   186188
[ constraints ] ; from mdp
15651 15652     1   0.1111   0.1111
[ constraints ] ; from mdp
15651 15653     1   0.1111   0.1111
[ bonds ]
15651 15654     1    0.153   186188    0.153   186188
[ constraints ] ; from mdp
15654 15655     1   0.1111   0.1111
[ constraints ] ; from mdp
15654 15656     1   0.1111   0.1111
[ bonds ]
15654 15657     1    0.153   186188    0.153   186188
[ constraints ] ; from mdp
15657 15658     1   0.1111   0.1111
[ constraints ] ; from mdp
15657 15659     1   0.1111   0.1111
[ bonds ]
15657 15660     1    0.153   186188    0.153   186188
[ constraints ] ; from mdp
15660 15661     1   0.1111   0.1111
[ constraints ] ; from mdp
15660 15662     1   0.1111   0.1111
[ bonds ]
15660 15663     1    0.153   186188    0.153   186188
[ constraints ] ; from mdp
15663 15664     1   0.1111   0.1111
[ constraints ] ; from mdp
15663 15665     1   0.1111   0.1111
[ bonds ]
15663 15666     1    0.153   186188    0.153   186188
[ constraints ] ; from mdp
15666 15667     1   0.1111   0.1111
[ constraints ] ; from mdp
15666 15668     1   0.1111   0.1111
[ bonds ]
15666 15669     1    0.153   186188    0.153   186188
[ constraints ] ; from mdp
15669 15670     1   0.1111   0.1111
[ constraints ] ; from mdp
15669 15671     1   0.1111   0.1111
[ bonds ]
15669 15672     1    0.153   186188    0.153   186188
[ constraints ] ; from mdp
15672 15673     1   0.1111   0.1111
[ constraints ] ; from mdp
15672 15674     1   0.1111   0.1111
[ bonds ]
15672 15675     1    0.153   186188    0.153   186188
[ constraints ] ; from mdp
15675 15676     1   0.1111   0.1111
[ constraints ] ; from mdp
15675 15677     1   0.1111   0.1111
[ bonds ]
15675 15678     1    0.153   186188    0.153   186188
[ constraints ] ; from mdp
15678 15679     1   0.1111   0.1111
[ constraints ] ; from mdp
15678 15680     1   0.1111   0.1111
[ bonds ]
15678 15681     1    0.153   186188    0.153   186188
[ constraints ] ; from mdp
15681 15682     1   0.1111   0.1111
[ constraints ] ; from mdp
15681 15683     1   0.1111   0.1111
[ bonds ]
15681 15684     1   0.1528   186188   0.1528   186188
[ constraints ] ; from mdp
15684 15685     1   0.1111   0.1111
[ constraints ] ; from mdp
15684 15686     1   0.1111   0.1111
[ constraints ] ; from mdp
15684 15687     1   0.1111   0.1111
[ constraints ] ; from mdp
15688 15689     1   0.1111   0.1111
[ constraints ] ; from mdp
15688 15690     1   0.1111   0.1111
[ bonds ]
15688 15691     1    0.153   186188    0.153   186188
[ constraints ] ; from mdp
15691 15692     1   0.1111   0.1111
[ constraints ] ; from mdp
15691 15693     1   0.1111   0.1111
[ bonds ]
15691 15694     1    0.153   186188    0.153   186188
[ constraints ] ; from mdp
15694 15695     1   0.1111   0.1111
[ constraints ] ; from mdp
15694 15696     1   0.1111   0.1111
[ bonds ]
15694 15697     1    0.153   186188    0.153   186188
[ constraints ] ; from mdp
15697 15698     1   0.1111   0.1111
[ constraints ] ; from mdp
15697 15699     1   0.1111   0.1111
[ bonds ]
15697 15700     1    0.153   186188    0.153   186188
[ constraints ] ; from mdp
15700 15701     1   0.1111   0.1111
[ constraints ] ; from mdp
15700 15702     1   0.1111   0.1111
[ bonds ]
15700 15703     1    0.153   186188    0.153   186188
[ constraints ] ; from mdp
15703 15704     1   0.1111   0.1111
[ constraints ] ; from mdp
15703 15705     1   0.1111   0.1111
[ bonds ]
15703 15706     1    0.153   186188    0.153   186188
[ constraints ] ; from mdp
15706 15707     1   0.1111   0.1111
[ constraints ] ; from mdp
15706 15708     1   0.1111   0.1111
[ bonds ]
15706 15709     1    0.153   186188    0.153   186188
[ constraints ] ; from mdp
15709 15710     1   0.1111   0.1111
[ constraints ] ; from mdp
15709 15711     1   0.1111   0.1111
[ bonds ]
15709 15712     1    0.153   186188    0.153   186188
[ constraints ] ; from mdp
15712 15713     1   0.1111   0.1111
[ constraints ] ; from mdp
15712 15714     1   0.1111   0.1111
[ bonds ]
15712 15715     1    0.153   186188    0.153   186188
[ constraints ] ; from mdp
15715 15716     1   0.1111   0.1111
[ constraints ] ; from mdp
15715 15717     1   0.1111   0.1111
[ bonds ]
15715 15718     1    0.153   186188    0.153   186188
[ constraints ] ; from mdp
15718 15719     1   0.1111   0.1111
[ constraints ] ; from mdp
15718 15720     1   0.1111   0.1111
[ bonds ]
15718 15721     1    0.153   186188    0.153   186188
[ constraints ] ; from mdp
15721 15722     1   0.1111   0.1111
[ constraints ] ; from mdp
15721 15723     1   0.1111   0.1111
[ bonds ]
15721 15724     1    0.153   186188    0.153   186188
[ constraints ] ; from mdp
15724 15725     1   0.1111   0.1111
[ constraints ] ; from mdp
15724 15726     1   0.1111   0.1111
[ bonds ]
15724 15727     1   0.1528   186188   0.1528   186188
[ constraints ] ; from mdp
15727 15728     1   0.1111   0.1111
[ constraints ] ; from mdp
15727 15729     1   0.1111   0.1111
[ constraints ] ; from mdp
15727 15730     1   0.1111   0.1111
[ bonds ]
15731 15732     1    0.151   179912    0.151   179912
[ bonds ]
15731 15736     1    0.151   179912    0.151   179912
[ bonds ]
15731 15740     1    0.151   179912    0.151   179912
[ bonds ]
15731 15744     1    0.151   179912    0.151   179912
[ constraints ] ; from mdp
15732 15733     1    0.108    0.108
[ constraints ] ; from mdp
15732 15734     1    0.108    0.108
[ constraints ] ; from mdp
15732 15735     1    0.108    0.108
[ constraints ] ; from mdp
15736 15737     1    0.108    0.108
[ constraints ] ; from mdp
15736 15738     1    0.108    0.108
[ constraints ] ; from mdp
15736 15739     1    0.108    0.108
[ constraints ] ; from mdp
15740 15741     1    0.108    0.108
[ constraints ] ; from mdp
15740 15742     1    0.108    0.108
[ constraints ] ; from mdp
15740 15743     1    0.108    0.108
[ constraints ] ; from mdp
15744 15745     1    0.108    0.108
[ constraints ] ; from mdp
15744 15746     1    0.108    0.108
[ bonds ]
15744 15747     1    0.153   186188    0.153   186188
[ constraints ] ; from mdp
15747 15748     1   0.1111   0.1111
[ constraints ] ; from mdp
15747 15749     1   0.1111   0.1111
[ bonds ]
15747 15754     1    0.143   284512    0.143   284512
[ bonds ]
15750 15751     1    0.148   485344    0.148   485344
[ bonds ]
15750 15752     1    0.148   485344    0.148   485344
[ bonds ]
15750 15753     1     0.16   225936     0.16   225936
[ bonds ]
15750 15754     1     0.16   225936     0.16   225936
[ bonds ]
15753 15755     1    0.143   284512    0.143   284512
[ constraints ] ; from mdp
15755 15756     1   0.1111   0.1111
[ constraints ] ; from mdp
15755 15757     1   0.1111   0.1111
[ bonds ]
15755 15758     1   0.1538   186188   0.1538   186188
[ constraints ] ; from mdp
15758 15759     1   0.1111   0.1111
[ bonds ]
15758 15760     1    0.143   284512    0.143   284512
[ bonds ]
15758 15766     1   0.1538   186188   0.1538   186188
[ bonds ]
15760 15761     1   0.1334   125520   0.1334   125520
[ bonds ]
15761 15762     1    0.122   627600    0.122   627600
[ bonds ]
15761 15763     1   0.1522   167360   0.1522   167360
[ constraints ] ; from mdp
15763 15764     1   0.1111   0.1111
[ constraints ] ; from mdp
15763 15765     1   0.1111   0.1111
[ bonds ]
15763 15775     1    0.153   186188    0.153   186188
[ constraints ] ; from mdp
15766 15767     1   0.1111   0.1111
[ constraints ] ; from mdp
15766 15768     1   0.1111   0.1111
[ bonds ]
15766 15769     1    0.143   284512    0.143   284512
[ bonds ]
15769 15770     1   0.1334   125520   0.1334   125520
[ bonds ]
15770 15771     1    0.122   627600    0.122   627600
[ bonds ]
15770 15772     1   0.1522   167360   0.1522   167360
[ constraints ] ; from mdp
15772 15773     1   0.1111   0.1111
[ constraints ] ; from mdp
15772 15774     1   0.1111   0.1111
[ bonds ]
15772 15818     1    0.153   186188    0.153   186188
[ constraints ] ; from mdp
15775 15776     1   0.1111   0.1111
[ constraints ] ; from mdp
15775 15777     1   0.1111   0.1111
[ bonds ]
15775 15778     1    0.153   186188    0.153   186188
[ constraints ] ; from mdp
15778 15779     1   0.1111   0.1111
[ constraints ] ; from mdp
15778 15780     1   0.1111   0.1111
[ bonds ]
15778 15781     1    0.153   186188    0.153   186188
[ constraints ] ; from mdp
15781 15782     1   0.1111   0.1111
[ constraints ] ; from mdp
15781 15783     1   0.1111   0.1111
[ bonds ]
15781 15784     1    0.153   186188    0.153   186188
[ constraints ] ; from mdp
15784 15785     1   0.1111   0.1111
[ constraints ] ; from mdp
15784 15786     1   0.1111   0.1111
[ bonds ]
15784 15787     1    0.153   186188    0.153   186188
[ constraints ] ; from mdp
15787 15788     1   0.1111   0.1111
[ constraints ] ; from mdp
15787 15789     1   0.1111   0.1111
[ bonds ]
15787 15790     1    0.153   186188    0.153   186188
[ constraints ] ; from mdp
15790 15791     1   0.1111   0.1111
[ constraints ] ; from mdp
15790 15792     1   0.1111   0.1111
[ bonds ]
15790 15793     1    0.153   186188    0.153   186188
[ constraints ] ; from mdp
15793 15794     1   0.1111   0.1111
[ constraints ] ; from mdp
15793 15795     1   0.1111   0.1111
[ bonds ]
15793 15796     1    0.153   186188    0.153   186188
[ constraints ] ; from mdp
15796 15797     1   0.1111   0.1111
[ constraints ] ; from mdp
15796 15798     1   0.1111   0.1111
[ bonds ]
15796 15799     1    0.153   186188    0.153   186188
[ constraints ] ; from mdp
15799 15800     1   0.1111   0.1111
[ constraints ] ; from mdp
15799 15801     1   0.1111   0.1111
[ bonds ]
15799 15802     1    0.153   186188    0.153   186188
[ constraints ] ; from mdp
15802 15803     1   0.1111   0.1111
[ constraints ] ; from mdp
15802 15804     1   0.1111   0.1111
[ bonds ]
15802 15805     1    0.153   186188    0.153   186188
[ constraints ] ; from mdp
15805 15806     1   0.1111   0.1111
[ constraints ] ; from mdp
15805 15807     1   0.1111   0.1111
[ bonds ]
15805 15808     1    0.153   186188    0.153   186188
[ constraints ] ; from mdp
15808 15809     1   0.1111   0.1111
[ constraints ] ; from mdp
15808 15810     1   0.1111   0.1111
[ bonds ]
15808 15811     1    0.153   186188    0.153   186188
[ constraints ] ; from mdp
15811 15812     1   0.1111   0.1111
[ constraints ] ; from mdp
15811 15813     1   0.1111   0.1111
[ bonds ]
15811 15814     1   0.1528   186188   0.1528   186188
[ constraints ] ; from mdp
15814 15815     1   0.1111   0.1111
[ constraints ] ; from mdp
15814 15816     1   0.1111   0.1111
[ constraints ] ; from mdp
15814 15817     1   0.1111   0.1111
[ constraints ] ; from mdp
15818 15819     1   0.1111   0.1111
[ constraints ] ; from mdp
15818 15820     1   0.1111   0.1111
[ bonds ]
15818 15821     1    0.153   186188    0.153   186188
[ constraints ] ; from mdp
15821 15822     1   0.1111   0.1111
[ constraints ] ; from mdp
15821 15823     1   0.1111   0.1111
[ bonds ]
15821 15824     1    0.153   186188    0.153   186188
[ constraints ] ; from mdp
15824 15825     1   0.1111   0.1111
[ constraints ] ; from mdp
15824 15826     1   0.1111   0.1111
[ bonds ]
15824 15827     1    0.153   186188    0.153   186188
[ constraints ] ; from mdp
15827 15828     1   0.1111   0.1111
[ constraints ] ; from mdp
15827 15829     1   0.1111   0.1111
[ bonds ]
15827 15830     1    0.153   186188    0.153   186188
[ constraints ] ; from mdp
15830 15831     1   0.1111   0.1111
[ constraints ] ; from mdp
15830 15832     1   0.1111   0.1111
[ bonds ]
15830 15833     1    0.153   186188    0.153   186188
[ constraints ] ; from mdp
15833 15834     1   0.1111   0.1111
[ constraints ] ; from mdp
15833 15835     1   0.1111   0.1111
[ bonds ]
15833 15836     1    0.153   186188    0.153   186188
[ constraints ] ; from mdp
15836 15837     1   0.1111   0.1111
[ constraints ] ; from mdp
15836 15838     1   0.1111   0.1111
[ bonds ]
15836 15839     1    0.153   186188    0.153   186188
[ constraints ] ; from mdp
15839 15840     1   0.1111   0.1111
[ constraints ] ; from mdp
15839 15841     1   0.1111   0.1111
[ bonds ]
15839 15842     1    0.153   186188    0.153   186188
[ constraints ] ; from mdp
15842 15843     1   0.1111   0.1111
[ constraints ] ; from mdp
15842 15844     1   0.1111   0.1111
[ bonds ]
15842 15845     1    0.153   186188    0.153   186188
[ constraints ] ; from mdp
15845 15846     1   0.1111   0.1111
[ constraints ] ; from mdp
15845 15847     1   0.1111   0.1111
[ bonds ]
15845 15848     1    0.153   186188    0.153   186188
[ constraints ] ; from mdp
15848 15849     1   0.1111   0.1111
[ constraints ] ; from mdp
15848 15850     1   0.1111   0.1111
[ bonds ]
15848 15851     1    0.153   186188    0.153   186188
[ constraints ] ; from mdp
15851 15852     1   0.1111   0.1111
[ constraints ] ; from mdp
15851 15853     1   0.1111   0.1111
[ bonds ]
15851 15854     1    0.153   186188    0.153   186188
[ constraints ] ; from mdp
15854 15855     1   0.1111   0.1111
[ constraints ] ; from mdp
15854 15856     1   0.1111   0.1111
[ bonds ]
15854 15857     1   0.1528   186188   0.1528   186188
[ constraints ] ; from mdp
15857 15858     1   0.1111   0.1111
[ constraints ] ; from mdp
15857 15859     1   0.1111   0.1111
[ constraints ] ; from mdp
15857 15860     1   0.1111   0.1111
[ bonds ]
15861 15862     1    0.151   179912    0.151   179912
[ bonds ]
15861 15866     1    0.151   179912    0.151   179912
[ bonds ]
15861 15870     1    0.151   179912    0.151   179912
[ bonds ]
15861 15874     1    0.151   179912    0.151   179912
[ constraints ] ; from mdp
15862 15863     1    0.108    0.108
[ constraints ] ; from mdp
15862 15864     1    0.108    0.108
[ constraints ] ; from mdp
15862 15865     1    0.108    0.108
[ constraints ] ; from mdp
15866 15867     1    0.108    0.108
[ constraints ] ; from mdp
15866 15868     1    0.108    0.108
[ constraints ] ; from mdp
15866 15869     1    0.108    0.108
[ constraints ] ; from mdp
15870 15871     1    0.108    0.108
[ constraints ] ; from mdp
15870 15872     1    0.108    0.108
[ constraints ] ; from mdp
15870 15873     1    0.108    0.108
[ constraints ] ; from mdp
15874 15875     1    0.108    0.108
[ constraints ] ; from mdp
15874 15876     1    0.108    0.108
[ bonds ]
15874 15877     1    0.153   186188    0.153   186188
[ constraints ] ; from mdp
15877 15878     1   0.1111   0.1111
[ constraints ] ; from mdp
15877 15879     1   0.1111   0.1111
[ bonds ]
15877 15884     1    0.143   284512    0.143   284512
[ bonds ]
15880 15881     1    0.148   485344    0.148   485344
[ bonds ]
15880 15882     1    0.148   485344    0.148   485344
[ bonds ]
15880 15883     1     0.16   225936     0.16   225936
[ bonds ]
15880 15884     1     0.16   225936     0.16   225936
[ bonds ]
15883 15885     1    0.143   284512    0.143   284512
[ constraints ] ; from mdp
15885 15886     1   0.1111   0.1111
[ constraints ] ; from mdp
15885 15887     1   0.1111   0.1111
[ bonds ]
15885 15888     1   0.1538   186188   0.1538   186188
[ constraints ] ; from mdp
15888 15889     1   0.1111   0.1111
[ bonds ]
15888 15890     1    0.143   284512    0.143   284512
[ bonds ]
15888 15896     1   0.1538   186188   0.1538   186188
[ bonds ]
15890 15891     1   0.1334   125520   0.1334   125520
[ bonds ]
15891 15892     1    0.122   627600    0.122   627600
[ bonds ]
15891 15893     1   0.1522   167360   0.1522   167360
[ constraints ] ; from mdp
15893 15894     1   0.1111   0.1111
[ constraints ] ; from mdp
15893 15895     1   0.1111   0.1111
[ bonds ]
15893 15905     1    0.153   186188    0.153   186188
[ constraints ] ; from mdp
15896 15897     1   0.1111   0.1111
[ constraints ] ; from mdp
15896 15898     1   0.1111   0.1111
[ bonds ]
15896 15899     1    0.143   284512    0.143   284512
[ bonds ]
15899 15900     1   0.1334   125520   0.1334   125520
[ bonds ]
15900 15901     1    0.122   627600    0.122   627600
[ bonds ]
15900 15902     1   0.1522   167360   0.1522   167360
[ constraints ] ; from mdp
15902 15903     1   0.1111   0.1111
[ constraints ] ; from mdp
15902 15904     1   0.1111   0.1111
[ bonds ]
15902 15948     1    0.153   186188    0.153   186188
[ constraints ] ; from mdp
15905 15906     1   0.1111   0.1111
[ constraints ] ; from mdp
15905 15907     1   0.1111   0.1111
[ bonds ]
15905 15908     1    0.153   186188    0.153   186188
[ constraints ] ; from mdp
15908 15909     1   0.1111   0.1111
[ constraints ] ; from mdp
15908 15910     1   0.1111   0.1111
[ bonds ]
15908 15911     1    0.153   186188    0.153   186188
[ constraints ] ; from mdp
15911 15912     1   0.1111   0.1111
[ constraints ] ; from mdp
15911 15913     1   0.1111   0.1111
[ bonds ]
15911 15914     1    0.153   186188    0.153   186188
[ constraints ] ; from mdp
15914 15915     1   0.1111   0.1111
[ constraints ] ; from mdp
15914 15916     1   0.1111   0.1111
[ bonds ]
15914 15917     1    0.153   186188    0.153   186188
[ constraints ] ; from mdp
15917 15918     1   0.1111   0.1111
[ constraints ] ; from mdp
15917 15919     1   0.1111   0.1111
[ bonds ]
15917 15920     1    0.153   186188    0.153   186188
[ constraints ] ; from mdp
15920 15921     1   0.1111   0.1111
[ constraints ] ; from mdp
15920 15922     1   0.1111   0.1111
[ bonds ]
15920 15923     1    0.153   186188    0.153   186188
[ constraints ] ; from mdp
15923 15924     1   0.1111   0.1111
[ constraints ] ; from mdp
15923 15925     1   0.1111   0.1111
[ bonds ]
15923 15926     1    0.153   186188    0.153   186188
[ constraints ] ; from mdp
15926 15927     1   0.1111   0.1111
[ constraints ] ; from mdp
15926 15928     1   0.1111   0.1111
[ bonds ]
15926 15929     1    0.153   186188    0.153   186188
[ constraints ] ; from mdp
15929 15930     1   0.1111   0.1111
[ constraints ] ; from mdp
15929 15931     1   0.1111   0.1111
[ bonds ]
15929 15932     1    0.153   186188    0.153   186188
[ constraints ] ; from mdp
15932 15933     1   0.1111   0.1111
[ constraints ] ; from mdp
15932 15934     1   0.1111   0.1111
[ bonds ]
15932 15935     1    0.153   186188    0.153   186188
[ constraints ] ; from mdp
15935 15936     1   0.1111   0.1111
[ constraints ] ; from mdp
15935 15937     1   0.1111   0.1111
[ bonds ]
15935 15938     1    0.153   186188    0.153   186188
[ constraints ] ; from mdp
15938 15939     1   0.1111   0.1111
[ constraints ] ; from mdp
15938 15940     1   0.1111   0.1111
[ bonds ]
15938 15941     1    0.153   186188    0.153   186188
[ constraints ] ; from mdp
15941 15942     1   0.1111   0.1111
[ constraints ] ; from mdp
15941 15943     1   0.1111   0.1111
[ bonds ]
15941 15944     1   0.1528   186188   0.1528   186188
[ constraints ] ; from mdp
15944 15945     1   0.1111   0.1111
[ constraints ] ; from mdp
15944 15946     1   0.1111   0.1111
[ constraints ] ; from mdp
15944 15947     1   0.1111   0.1111
[ constraints ] ; from mdp
15948 15949     1   0.1111   0.1111
[ constraints ] ; from mdp
15948 15950     1   0.1111   0.1111
[ bonds ]
15948 15951     1    0.153   186188    0.153   186188
[ constraints ] ; from mdp
15951 15952     1   0.1111   0.1111
[ constraints ] ; from mdp
15951 15953     1   0.1111   0.1111
[ bonds ]
15951 15954     1    0.153   186188    0.153   186188
[ constraints ] ; from mdp
15954 15955     1   0.1111   0.1111
[ constraints ] ; from mdp
15954 15956     1   0.1111   0.1111
[ bonds ]
15954 15957     1    0.153   186188    0.153   186188
[ constraints ] ; from mdp
15957 15958     1   0.1111   0.1111
[ constraints ] ; from mdp
15957 15959     1   0.1111   0.1111
[ bonds ]
15957 15960     1    0.153   186188    0.153   186188
[ constraints ] ; from mdp
15960 15961     1   0.1111   0.1111
[ constraints ] ; from mdp
15960 15962     1   0.1111   0.1111
[ bonds ]
15960 15963     1    0.153   186188    0.153   186188
[ constraints ] ; from mdp
15963 15964     1   0.1111   0.1111
[ constraints ] ; from mdp
15963 15965     1   0.1111   0.1111
[ bonds ]
15963 15966     1    0.153   186188    0.153   186188
[ constraints ] ; from mdp
15966 15967     1   0.1111   0.1111
[ constraints ] ; from mdp
15966 15968     1   0.1111   0.1111
[ bonds ]
15966 15969     1    0.153   186188    0.153   186188
[ constraints ] ; from mdp
15969 15970     1   0.1111   0.1111
[ constraints ] ; from mdp
15969 15971     1   0.1111   0.1111
[ bonds ]
15969 15972     1    0.153   186188    0.153   186188
[ constraints ] ; from mdp
15972 15973     1   0.1111   0.1111
[ constraints ] ; from mdp
15972 15974     1   0.1111   0.1111
[ bonds ]
15972 15975     1    0.153   186188    0.153   186188
[ constraints ] ; from mdp
15975 15976     1   0.1111   0.1111
[ constraints ] ; from mdp
15975 15977     1   0.1111   0.1111
[ bonds ]
15975 15978     1    0.153   186188    0.153   186188
[ constraints ] ; from mdp
15978 15979     1   0.1111   0.1111
[ constraints ] ; from mdp
15978 15980     1   0.1111   0.1111
[ bonds ]
15978 15981     1    0.153   186188    0.153   186188
[ constraints ] ; from mdp
15981 15982     1   0.1111   0.1111
[ constraints ] ; from mdp
15981 15983     1   0.1111   0.1111
[ bonds ]
15981 15984     1    0.153   186188    0.153   186188
[ constraints ] ; from mdp
15984 15985     1   0.1111   0.1111
[ constraints ] ; from mdp
15984 15986     1   0.1111   0.1111
[ bonds ]
15984 15987     1   0.1528   186188   0.1528   186188
[ constraints ] ; from mdp
15987 15988     1   0.1111   0.1111
[ constraints ] ; from mdp
15987 15989     1   0.1111   0.1111
[ constraints ] ; from mdp
15987 15990     1   0.1111   0.1111
[ bonds ]
15991 15992     1    0.151   179912    0.151   179912
[ bonds ]
15991 15996     1    0.151   179912    0.151   179912
[ bonds ]
15991 16000     1    0.151   179912    0.151   179912
[ bonds ]
15991 16004     1    0.151   179912    0.151   179912
[ constraints ] ; from mdp
15992 15993     1    0.108    0.108
[ constraints ] ; from mdp
15992 15994     1    0.108    0.108
[ constraints ] ; from mdp
15992 15995     1    0.108    0.108
[ constraints ] ; from mdp
15996 15997     1    0.108    0.108
[ constraints ] ; from mdp
15996 15998     1    0.108    0.108
[ constraints ] ; from mdp
15996 15999     1    0.108    0.108
[ constraints ] ; from mdp
16000 16001     1    0.108    0.108
[ constraints ] ; from mdp
16000 16002     1    0.108    0.108
[ constraints ] ; from mdp
16000 16003     1    0.108    0.108
[ constraints ] ; from mdp
16004 16005     1    0.108    0.108
[ constraints ] ; from mdp
16004 16006     1    0.108    0.108
[ bonds ]
16004 16007     1    0.153   186188    0.153   186188
[ constraints ] ; from mdp
16007 16008     1   0.1111   0.1111
[ constraints ] ; from mdp
16007 16009     1   0.1111   0.1111
[ bonds ]
16007 16014     1    0.143   284512    0.143   284512
[ bonds ]
16010 16011     1    0.148   485344    0.148   485344
[ bonds ]
16010 16012     1    0.148   485344    0.148   485344
[ bonds ]
16010 16013     1     0.16   225936     0.16   225936
[ bonds ]
16010 16014     1     0.16   225936     0.16   225936
[ bonds ]
16013 16015     1    0.143   284512    0.143   284512
[ constraints ] ; from mdp
16015 16016     1   0.1111   0.1111
[ constraints ] ; from mdp
16015 16017     1   0.1111   0.1111
[ bonds ]
16015 16018     1   0.1538   186188   0.1538   186188
[ constraints ] ; from mdp
16018 16019     1   0.1111   0.1111
[ bonds ]
16018 16020     1    0.143   284512    0.143   284512
[ bonds ]
16018 16026     1   0.1538   186188   0.1538   186188
[ bonds ]
16020 16021     1   0.1334   125520   0.1334   125520
[ bonds ]
16021 16022     1    0.122   627600    0.122   627600
[ bonds ]
16021 16023     1   0.1522   167360   0.1522   167360
[ constraints ] ; from mdp
16023 16024     1   0.1111   0.1111
[ constraints ] ; from mdp
16023 16025     1   0.1111   0.1111
[ bonds ]
16023 16035     1    0.153   186188    0.153   186188
[ constraints ] ; from mdp
16026 16027     1   0.1111   0.1111
[ constraints ] ; from mdp
16026 16028     1   0.1111   0.1111
[ bonds ]
16026 16029     1    0.143   284512    0.143   284512
[ bonds ]
16029 16030     1   0.1334   125520   0.1334   125520
[ bonds ]
16030 16031     1    0.122   627600    0.122   627600
[ bonds ]
16030 16032     1   0.1522   167360   0.1522   167360
[ constraints ] ; from mdp
16032 16033     1   0.1111   0.1111
[ constraints ] ; from mdp
16032 16034     1   0.1111   0.1111
[ bonds ]
16032 16078     1    0.153   186188    0.153   186188
[ constraints ] ; from mdp
16035 16036     1   0.1111   0.1111
[ constraints ] ; from mdp
16035 16037     1   0.1111   0.1111
[ bonds ]
16035 16038     1    0.153   186188    0.153   186188
[ constraints ] ; from mdp
16038 16039     1   0.1111   0.1111
[ constraints ] ; from mdp
16038 16040     1   0.1111   0.1111
[ bonds ]
16038 16041     1    0.153   186188    0.153   186188
[ constraints ] ; from mdp
16041 16042     1   0.1111   0.1111
[ constraints ] ; from mdp
16041 16043     1   0.1111   0.1111
[ bonds ]
16041 16044     1    0.153   186188    0.153   186188
[ constraints ] ; from mdp
16044 16045     1   0.1111   0.1111
[ constraints ] ; from mdp
16044 16046     1   0.1111   0.1111
[ bonds ]
16044 16047     1    0.153   186188    0.153   186188
[ constraints ] ; from mdp
16047 16048     1   0.1111   0.1111
[ constraints ] ; from mdp
16047 16049     1   0.1111   0.1111
[ bonds ]
16047 16050     1    0.153   186188    0.153   186188
[ constraints ] ; from mdp
16050 16051     1   0.1111   0.1111
[ constraints ] ; from mdp
16050 16052     1   0.1111   0.1111
[ bonds ]
16050 16053     1    0.153   186188    0.153   186188
[ constraints ] ; from mdp
16053 16054     1   0.1111   0.1111
[ constraints ] ; from mdp
16053 16055     1   0.1111   0.1111
[ bonds ]
16053 16056     1    0.153   186188    0.153   186188
[ constraints ] ; from mdp
16056 16057     1   0.1111   0.1111
[ constraints ] ; from mdp
16056 16058     1   0.1111   0.1111
[ bonds ]
16056 16059     1    0.153   186188    0.153   186188
[ constraints ] ; from mdp
16059 16060     1   0.1111   0.1111
[ constraints ] ; from mdp
16059 16061     1   0.1111   0.1111
[ bonds ]
16059 16062     1    0.153   186188    0.153   186188
[ constraints ] ; from mdp
16062 16063     1   0.1111   0.1111
[ constraints ] ; from mdp
16062 16064     1   0.1111   0.1111
[ bonds ]
16062 16065     1    0.153   186188    0.153   186188
[ constraints ] ; from mdp
16065 16066     1   0.1111   0.1111
[ constraints ] ; from mdp
16065 16067     1   0.1111   0.1111
[ bonds ]
16065 16068     1    0.153   186188    0.153   186188
[ constraints ] ; from mdp
16068 16069     1   0.1111   0.1111
[ constraints ] ; from mdp
16068 16070     1   0.1111   0.1111
[ bonds ]
16068 16071     1    0.153   186188    0.153   186188
[ constraints ] ; from mdp
16071 16072     1   0.1111   0.1111
[ constraints ] ; from mdp
16071 16073     1   0.1111   0.1111
[ bonds ]
16071 16074     1   0.1528   186188   0.1528   186188
[ constraints ] ; from mdp
16074 16075     1   0.1111   0.1111
[ constraints ] ; from mdp
16074 16076     1   0.1111   0.1111
[ constraints ] ; from mdp
16074 16077     1   0.1111   0.1111
[ constraints ] ; from mdp
16078 16079     1   0.1111   0.1111
[ constraints ] ; from mdp
16078 16080     1   0.1111   0.1111
[ bonds ]
16078 16081     1    0.153   186188    0.153   186188
[ constraints ] ; from mdp
16081 16082     1   0.1111   0.1111
[ constraints ] ; from mdp
16081 16083     1   0.1111   0.1111
[ bonds ]
16081 16084     1    0.153   186188    0.153   186188
[ constraints ] ; from mdp
16084 16085     1   0.1111   0.1111
[ constraints ] ; from mdp
16084 16086     1   0.1111   0.1111
[ bonds ]
16084 16087     1    0.153   186188    0.153   186188
[ constraints ] ; from mdp
16087 16088     1   0.1111   0.1111
[ constraints ] ; from mdp
16087 16089     1   0.1111   0.1111
[ bonds ]
16087 16090     1    0.153   186188    0.153   186188
[ constraints ] ; from mdp
16090 16091     1   0.1111   0.1111
[ constraints ] ; from mdp
16090 16092     1   0.1111   0.1111
[ bonds ]
16090 16093     1    0.153   186188    0.153   186188
[ constraints ] ; from mdp
16093 16094     1   0.1111   0.1111
[ constraints ] ; from mdp
16093 16095     1   0.1111   0.1111
[ bonds ]
16093 16096     1    0.153   186188    0.153   186188
[ constraints ] ; from mdp
16096 16097     1   0.1111   0.1111
[ constraints ] ; from mdp
16096 16098     1   0.1111   0.1111
[ bonds ]
16096 16099     1    0.153   186188    0.153   186188
[ constraints ] ; from mdp
16099 16100     1   0.1111   0.1111
[ constraints ] ; from mdp
16099 16101     1   0.1111   0.1111
[ bonds ]
16099 16102     1    0.153   186188    0.153   186188
[ constraints ] ; from mdp
16102 16103     1   0.1111   0.1111
[ constraints ] ; from mdp
16102 16104     1   0.1111   0.1111
[ bonds ]
16102 16105     1    0.153   186188    0.153   186188
[ constraints ] ; from mdp
16105 16106     1   0.1111   0.1111
[ constraints ] ; from mdp
16105 16107     1   0.1111   0.1111
[ bonds ]
16105 16108     1    0.153   186188    0.153   186188
[ constraints ] ; from mdp
16108 16109     1   0.1111   0.1111
[ constraints ] ; from mdp
16108 16110     1   0.1111   0.1111
[ bonds ]
16108 16111     1    0.153   186188    0.153   186188
[ constraints ] ; from mdp
16111 16112     1   0.1111   0.1111
[ constraints ] ; from mdp
16111 16113     1   0.1111   0.1111
[ bonds ]
16111 16114     1    0.153   186188    0.153   186188
[ constraints ] ; from mdp
16114 16115     1   0.1111   0.1111
[ constraints ] ; from mdp
16114 16116     1   0.1111   0.1111
[ bonds ]
16114 16117     1   0.1528   186188   0.1528   186188
[ constraints ] ; from mdp
16117 16118     1   0.1111   0.1111
[ constraints ] ; from mdp
16117 16119     1   0.1111   0.1111
[ constraints ] ; from mdp
16117 16120     1   0.1111   0.1111
[ bonds ]
16121 16122     1    0.151   179912    0.151   179912
[ bonds ]
16121 16126     1    0.151   179912    0.151   179912
[ bonds ]
16121 16130     1    0.151   179912    0.151   179912
[ bonds ]
16121 16134     1    0.151   179912    0.151   179912
[ constraints ] ; from mdp
16122 16123     1    0.108    0.108
[ constraints ] ; from mdp
16122 16124     1    0.108    0.108
[ constraints ] ; from mdp
16122 16125     1    0.108    0.108
[ constraints ] ; from mdp
16126 16127     1    0.108    0.108
[ constraints ] ; from mdp
16126 16128     1    0.108    0.108
[ constraints ] ; from mdp
16126 16129     1    0.108    0.108
[ constraints ] ; from mdp
16130 16131     1    0.108    0.108
[ constraints ] ; from mdp
16130 16132     1    0.108    0.108
[ constraints ] ; from mdp
16130 16133     1    0.108    0.108
[ constraints ] ; from mdp
16134 16135     1    0.108    0.108
[ constraints ] ; from mdp
16134 16136     1    0.108    0.108
[ bonds ]
16134 16137     1    0.153   186188    0.153   186188
[ constraints ] ; from mdp
16137 16138     1   0.1111   0.1111
[ constraints ] ; from mdp
16137 16139     1   0.1111   0.1111
[ bonds ]
16137 16144     1    0.143   284512    0.143   284512
[ bonds ]
16140 16141     1    0.148   485344    0.148   485344
[ bonds ]
16140 16142     1    0.148   485344    0.148   485344
[ bonds ]
16140 16143     1     0.16   225936     0.16   225936
[ bonds ]
16140 16144     1     0.16   225936     0.16   225936
[ bonds ]
16143 16145     1    0.143   284512    0.143   284512
[ constraints ] ; from mdp
16145 16146     1   0.1111   0.1111
[ constraints ] ; from mdp
16145 16147     1   0.1111   0.1111
[ bonds ]
16145 16148     1   0.1538   186188   0.1538   186188
[ constraints ] ; from mdp
16148 16149     1   0.1111   0.1111
[ bonds ]
16148 16150     1    0.143   284512    0.143   284512
[ bonds ]
16148 16156     1   0.1538   186188   0.1538   186188
[ bonds ]
16150 16151     1   0.1334   125520   0.1334   125520
[ bonds ]
16151 16152     1    0.122   627600    0.122   627600
[ bonds ]
16151 16153     1   0.1522   167360   0.1522   167360
[ constraints ] ; from mdp
16153 16154     1   0.1111   0.1111
[ constraints ] ; from mdp
16153 16155     1   0.1111   0.1111
[ bonds ]
16153 16165     1    0.153   186188    0.153   186188
[ constraints ] ; from mdp
16156 16157     1   0.1111   0.1111
[ constraints ] ; from mdp
16156 16158     1   0.1111   0.1111
[ bonds ]
16156 16159     1    0.143   284512    0.143   284512
[ bonds ]
16159 16160     1   0.1334   125520   0.1334   125520
[ bonds ]
16160 16161     1    0.122   627600    0.122   627600
[ bonds ]
16160 16162     1   0.1522   167360   0.1522   167360
[ constraints ] ; from mdp
16162 16163     1   0.1111   0.1111
[ constraints ] ; from mdp
16162 16164     1   0.1111   0.1111
[ bonds ]
16162 16208     1    0.153   186188    0.153   186188
[ constraints ] ; from mdp
16165 16166     1   0.1111   0.1111
[ constraints ] ; from mdp
16165 16167     1   0.1111   0.1111
[ bonds ]
16165 16168     1    0.153   186188    0.153   186188
[ constraints ] ; from mdp
16168 16169     1   0.1111   0.1111
[ constraints ] ; from mdp
16168 16170     1   0.1111   0.1111
[ bonds ]
16168 16171     1    0.153   186188    0.153   186188
[ constraints ] ; from mdp
16171 16172     1   0.1111   0.1111
[ constraints ] ; from mdp
16171 16173     1   0.1111   0.1111
[ bonds ]
16171 16174     1    0.153   186188    0.153   186188
[ constraints ] ; from mdp
16174 16175     1   0.1111   0.1111
[ constraints ] ; from mdp
16174 16176     1   0.1111   0.1111
[ bonds ]
16174 16177     1    0.153   186188    0.153   186188
[ constraints ] ; from mdp
16177 16178     1   0.1111   0.1111
[ constraints ] ; from mdp
16177 16179     1   0.1111   0.1111
[ bonds ]
16177 16180     1    0.153   186188    0.153   186188
[ constraints ] ; from mdp
16180 16181     1   0.1111   0.1111
[ constraints ] ; from mdp
16180 16182     1   0.1111   0.1111
[ bonds ]
16180 16183     1    0.153   186188    0.153   186188
[ constraints ] ; from mdp
16183 16184     1   0.1111   0.1111
[ constraints ] ; from mdp
16183 16185     1   0.1111   0.1111
[ bonds ]
16183 16186     1    0.153   186188    0.153   186188
[ constraints ] ; from mdp
16186 16187     1   0.1111   0.1111
[ constraints ] ; from mdp
16186 16188     1   0.1111   0.1111
[ bonds ]
16186 16189     1    0.153   186188    0.153   186188
[ constraints ] ; from mdp
16189 16190     1   0.1111   0.1111
[ constraints ] ; from mdp
16189 16191     1   0.1111   0.1111
[ bonds ]
16189 16192     1    0.153   186188    0.153   186188
[ constraints ] ; from mdp
16192 16193     1   0.1111   0.1111
[ constraints ] ; from mdp
16192 16194     1   0.1111   0.1111
[ bonds ]
16192 16195     1    0.153   186188    0.153   186188
[ constraints ] ; from mdp
16195 16196     1   0.1111   0.1111
[ constraints ] ; from mdp
16195 16197     1   0.1111   0.1111
[ bonds ]
16195 16198     1    0.153   186188    0.153   186188
[ constraints ] ; from mdp
16198 16199     1   0.1111   0.1111
[ constraints ] ; from mdp
16198 16200     1   0.1111   0.1111
[ bonds ]
16198 16201     1    0.153   186188    0.153   186188
[ constraints ] ; from mdp
16201 16202     1   0.1111   0.1111
[ constraints ] ; from mdp
16201 16203     1   0.1111   0.1111
[ bonds ]
16201 16204     1   0.1528   186188   0.1528   186188
[ constraints ] ; from mdp
16204 16205     1   0.1111   0.1111
[ constraints ] ; from mdp
16204 16206     1   0.1111   0.1111
[ constraints ] ; from mdp
16204 16207     1   0.1111   0.1111
[ constraints ] ; from mdp
16208 16209     1   0.1111   0.1111
[ constraints ] ; from mdp
16208 16210     1   0.1111   0.1111
[ bonds ]
16208 16211     1    0.153   186188    0.153   186188
[ constraints ] ; from mdp
16211 16212     1   0.1111   0.1111
[ constraints ] ; from mdp
16211 16213     1   0.1111   0.1111
[ bonds ]
16211 16214     1    0.153   186188    0.153   186188
[ constraints ] ; from mdp
16214 16215     1   0.1111   0.1111
[ constraints ] ; from mdp
16214 16216     1   0.1111   0.1111
[ bonds ]
16214 16217     1    0.153   186188    0.153   186188
[ constraints ] ; from mdp
16217 16218     1   0.1111   0.1111
[ constraints ] ; from mdp
16217 16219     1   0.1111   0.1111
[ bonds ]
16217 16220     1    0.153   186188    0.153   186188
[ constraints ] ; from mdp
16220 16221     1   0.1111   0.1111
[ constraints ] ; from mdp
16220 16222     1   0.1111   0.1111
[ bonds ]
16220 16223     1    0.153   186188    0.153   186188
[ constraints ] ; from mdp
16223 16224     1   0.1111   0.1111
[ constraints ] ; from mdp
16223 16225     1   0.1111   0.1111
[ bonds ]
16223 16226     1    0.153   186188    0.153   186188
[ constraints ] ; from mdp
16226 16227     1   0.1111   0.1111
[ constraints ] ; from mdp
16226 16228     1   0.1111   0.1111
[ bonds ]
16226 16229     1    0.153   186188    0.153   186188
[ constraints ] ; from mdp
16229 16230     1   0.1111   0.1111
[ constraints ] ; from mdp
16229 16231     1   0.1111   0.1111
[ bonds ]
16229 16232     1    0.153   186188    0.153   186188
[ constraints ] ; from mdp
16232 16233     1   0.1111   0.1111
[ constraints ] ; from mdp
16232 16234     1   0.1111   0.1111
[ bonds ]
16232 16235     1    0.153   186188    0.153   186188
[ constraints ] ; from mdp
16235 16236     1   0.1111   0.1111
[ constraints ] ; from mdp
16235 16237     1   0.1111   0.1111
[ bonds ]
16235 16238     1    0.153   186188    0.153   186188
[ constraints ] ; from mdp
16238 16239     1   0.1111   0.1111
[ constraints ] ; from mdp
16238 16240     1   0.1111   0.1111
[ bonds ]
16238 16241     1    0.153   186188    0.153   186188
[ constraints ] ; from mdp
16241 16242     1   0.1111   0.1111
[ constraints ] ; from mdp
16241 16243     1   0.1111   0.1111
[ bonds ]
16241 16244     1    0.153   186188    0.153   186188
[ constraints ] ; from mdp
16244 16245     1   0.1111   0.1111
[ constraints ] ; from mdp
16244 16246     1   0.1111   0.1111
[ bonds ]
16244 16247     1   0.1528   186188   0.1528   186188
[ constraints ] ; from mdp
16247 16248     1   0.1111   0.1111
[ constraints ] ; from mdp
16247 16249     1   0.1111   0.1111
[ constraints ] ; from mdp
16247 16250     1   0.1111   0.1111
[ bonds ]
16251 16252     1    0.151   179912    0.151   179912
[ bonds ]
16251 16256     1    0.151   179912    0.151   179912
[ bonds ]
16251 16260     1    0.151   179912    0.151   179912
[ bonds ]
16251 16264     1    0.151   179912    0.151   179912
[ constraints ] ; from mdp
16252 16253     1    0.108    0.108
[ constraints ] ; from mdp
16252 16254     1    0.108    0.108
[ constraints ] ; from mdp
16252 16255     1    0.108    0.108
[ constraints ] ; from mdp
16256 16257     1    0.108    0.108
[ constraints ] ; from mdp
16256 16258     1    0.108    0.108
[ constraints ] ; from mdp
16256 16259     1    0.108    0.108
[ constraints ] ; from mdp
16260 16261     1    0.108    0.108
[ constraints ] ; from mdp
16260 16262     1    0.108    0.108
[ constraints ] ; from mdp
16260 16263     1    0.108    0.108
[ constraints ] ; from mdp
16264 16265     1    0.108    0.108
[ constraints ] ; from mdp
16264 16266     1    0.108    0.108
[ bonds ]
16264 16267     1    0.153   186188    0.153   186188
[ constraints ] ; from mdp
16267 16268     1   0.1111   0.1111
[ constraints ] ; from mdp
16267 16269     1   0.1111   0.1111
[ bonds ]
16267 16274     1    0.143   284512    0.143   284512
[ bonds ]
16270 16271     1    0.148   485344    0.148   485344
[ bonds ]
16270 16272     1    0.148   485344    0.148   485344
[ bonds ]
16270 16273     1     0.16   225936     0.16   225936
[ bonds ]
16270 16274     1     0.16   225936     0.16   225936
[ bonds ]
16273 16275     1    0.143   284512    0.143   284512
[ constraints ] ; from mdp
16275 16276     1   0.1111   0.1111
[ constraints ] ; from mdp
16275 16277     1   0.1111   0.1111
[ bonds ]
16275 16278     1   0.1538   186188   0.1538   186188
[ constraints ] ; from mdp
16278 16279     1   0.1111   0.1111
[ bonds ]
16278 16280     1    0.143   284512    0.143   284512
[ bonds ]
16278 16286     1   0.1538   186188   0.1538   186188
[ bonds ]
16280 16281     1   0.1334   125520   0.1334   125520
[ bonds ]
16281 16282     1    0.122   627600    0.122   627600
[ bonds ]
16281 16283     1   0.1522   167360   0.1522   167360
[ constraints ] ; from mdp
16283 16284     1   0.1111   0.1111
[ constraints ] ; from mdp
16283 16285     1   0.1111   0.1111
[ bonds ]
16283 16295     1    0.153   186188    0.153   186188
[ constraints ] ; from mdp
16286 16287     1   0.1111   0.1111
[ constraints ] ; from mdp
16286 16288     1   0.1111   0.1111
[ bonds ]
16286 16289     1    0.143   284512    0.143   284512
[ bonds ]
16289 16290     1   0.1334   125520   0.1334   125520
[ bonds ]
16290 16291     1    0.122   627600    0.122   627600
[ bonds ]
16290 16292     1   0.1522   167360   0.1522   167360
[ constraints ] ; from mdp
16292 16293     1   0.1111   0.1111
[ constraints ] ; from mdp
16292 16294     1   0.1111   0.1111
[ bonds ]
16292 16338     1    0.153   186188    0.153   186188
[ constraints ] ; from mdp
16295 16296     1   0.1111   0.1111
[ constraints ] ; from mdp
16295 16297     1   0.1111   0.1111
[ bonds ]
16295 16298     1    0.153   186188    0.153   186188
[ constraints ] ; from mdp
16298 16299     1   0.1111   0.1111
[ constraints ] ; from mdp
16298 16300     1   0.1111   0.1111
[ bonds ]
16298 16301     1    0.153   186188    0.153   186188
[ constraints ] ; from mdp
16301 16302     1   0.1111   0.1111
[ constraints ] ; from mdp
16301 16303     1   0.1111   0.1111
[ bonds ]
16301 16304     1    0.153   186188    0.153   186188
[ constraints ] ; from mdp
16304 16305     1   0.1111   0.1111
[ constraints ] ; from mdp
16304 16306     1   0.1111   0.1111
[ bonds ]
16304 16307     1    0.153   186188    0.153   186188
[ constraints ] ; from mdp
16307 16308     1   0.1111   0.1111
[ constraints ] ; from mdp
16307 16309     1   0.1111   0.1111
[ bonds ]
16307 16310     1    0.153   186188    0.153   186188
[ constraints ] ; from mdp
16310 16311     1   0.1111   0.1111
[ constraints ] ; from mdp
16310 16312     1   0.1111   0.1111
[ bonds ]
16310 16313     1    0.153   186188    0.153   186188
[ constraints ] ; from mdp
16313 16314     1   0.1111   0.1111
[ constraints ] ; from mdp
16313 16315     1   0.1111   0.1111
[ bonds ]
16313 16316     1    0.153   186188    0.153   186188
[ constraints ] ; from mdp
16316 16317     1   0.1111   0.1111
[ constraints ] ; from mdp
16316 16318     1   0.1111   0.1111
[ bonds ]
16316 16319     1    0.153   186188    0.153   186188
[ constraints ] ; from mdp
16319 16320     1   0.1111   0.1111
[ constraints ] ; from mdp
16319 16321     1   0.1111   0.1111
[ bonds ]
16319 16322     1    0.153   186188    0.153   186188
[ constraints ] ; from mdp
16322 16323     1   0.1111   0.1111
[ constraints ] ; from mdp
16322 16324     1   0.1111   0.1111
[ bonds ]
16322 16325     1    0.153   186188    0.153   186188
[ constraints ] ; from mdp
16325 16326     1   0.1111   0.1111
[ constraints ] ; from mdp
16325 16327     1   0.1111   0.1111
[ bonds ]
16325 16328     1    0.153   186188    0.153   186188
[ constraints ] ; from mdp
16328 16329     1   0.1111   0.1111
[ constraints ] ; from mdp
16328 16330     1   0.1111   0.1111
[ bonds ]
16328 16331     1    0.153   186188    0.153   186188
[ constraints ] ; from mdp
16331 16332     1   0.1111   0.1111
[ constraints ] ; from mdp
16331 16333     1   0.1111   0.1111
[ bonds ]
16331 16334     1   0.1528   186188   0.1528   186188
[ constraints ] ; from mdp
16334 16335     1   0.1111   0.1111
[ constraints ] ; from mdp
16334 16336     1   0.1111   0.1111
[ constraints ] ; from mdp
16334 16337     1   0.1111   0.1111
[ constraints ] ; from mdp
16338 16339     1   0.1111   0.1111
[ constraints ] ; from mdp
16338 16340     1   0.1111   0.1111
[ bonds ]
16338 16341     1    0.153   186188    0.153   186188
[ constraints ] ; from mdp
16341 16342     1   0.1111   0.1111
[ constraints ] ; from mdp
16341 16343     1   0.1111   0.1111
[ bonds ]
16341 16344     1    0.153   186188    0.153   186188
[ constraints ] ; from mdp
16344 16345     1   0.1111   0.1111
[ constraints ] ; from mdp
16344 16346     1   0.1111   0.1111
[ bonds ]
16344 16347     1    0.153   186188    0.153   186188
[ constraints ] ; from mdp
16347 16348     1   0.1111   0.1111
[ constraints ] ; from mdp
16347 16349     1   0.1111   0.1111
[ bonds ]
16347 16350     1    0.153   186188    0.153   186188
[ constraints ] ; from mdp
16350 16351     1   0.1111   0.1111
[ constraints ] ; from mdp
16350 16352     1   0.1111   0.1111
[ bonds ]
16350 16353     1    0.153   186188    0.153   186188
[ constraints ] ; from mdp
16353 16354     1   0.1111   0.1111
[ constraints ] ; from mdp
16353 16355     1   0.1111   0.1111
[ bonds ]
16353 16356     1    0.153   186188    0.153   186188
[ constraints ] ; from mdp
16356 16357     1   0.1111   0.1111
[ constraints ] ; from mdp
16356 16358     1   0.1111   0.1111
[ bonds ]
16356 16359     1    0.153   186188    0.153   186188
[ constraints ] ; from mdp
16359 16360     1   0.1111   0.1111
[ constraints ] ; from mdp
16359 16361     1   0.1111   0.1111
[ bonds ]
16359 16362     1    0.153   186188    0.153   186188
[ constraints ] ; from mdp
16362 16363     1   0.1111   0.1111
[ constraints ] ; from mdp
16362 16364     1   0.1111   0.1111
[ bonds ]
16362 16365     1    0.153   186188    0.153   186188
[ constraints ] ; from mdp
16365 16366     1   0.1111   0.1111
[ constraints ] ; from mdp
16365 16367     1   0.1111   0.1111
[ bonds ]
16365 16368     1    0.153   186188    0.153   186188
[ constraints ] ; from mdp
16368 16369     1   0.1111   0.1111
[ constraints ] ; from mdp
16368 16370     1   0.1111   0.1111
[ bonds ]
16368 16371     1    0.153   186188    0.153   186188
[ constraints ] ; from mdp
16371 16372     1   0.1111   0.1111
[ constraints ] ; from mdp
16371 16373     1   0.1111   0.1111
[ bonds ]
16371 16374     1    0.153   186188    0.153   186188
[ constraints ] ; from mdp
16374 16375     1   0.1111   0.1111
[ constraints ] ; from mdp
16374 16376     1   0.1111   0.1111
[ bonds ]
16374 16377     1   0.1528   186188   0.1528   186188
[ constraints ] ; from mdp
16377 16378     1   0.1111   0.1111
[ constraints ] ; from mdp
16377 16379     1   0.1111   0.1111
[ constraints ] ; from mdp
16377 16380     1   0.1111   0.1111
[ bonds ]
16381 16382     1    0.151   179912    0.151   179912
[ bonds ]
16381 16386     1    0.151   179912    0.151   179912
[ bonds ]
16381 16390     1    0.151   179912    0.151   179912
[ bonds ]
16381 16394     1    0.151   179912    0.151   179912
[ constraints ] ; from mdp
16382 16383     1    0.108    0.108
[ constraints ] ; from mdp
16382 16384     1    0.108    0.108
[ constraints ] ; from mdp
16382 16385     1    0.108    0.108
[ constraints ] ; from mdp
16386 16387     1    0.108    0.108
[ constraints ] ; from mdp
16386 16388     1    0.108    0.108
[ constraints ] ; from mdp
16386 16389     1    0.108    0.108
[ constraints ] ; from mdp
16390 16391     1    0.108    0.108
[ constraints ] ; from mdp
16390 16392     1    0.108    0.108
[ constraints ] ; from mdp
16390 16393     1    0.108    0.108
[ constraints ] ; from mdp
16394 16395     1    0.108    0.108
[ constraints ] ; from mdp
16394 16396     1    0.108    0.108
[ bonds ]
16394 16397     1    0.153   186188    0.153   186188
[ constraints ] ; from mdp
16397 16398     1   0.1111   0.1111
[ constraints ] ; from mdp
16397 16399     1   0.1111   0.1111
[ bonds ]
16397 16404     1    0.143   284512    0.143   284512
[ bonds ]
16400 16401     1    0.148   485344    0.148   485344
[ bonds ]
16400 16402     1    0.148   485344    0.148   485344
[ bonds ]
16400 16403     1     0.16   225936     0.16   225936
[ bonds ]
16400 16404     1     0.16   225936     0.16   225936
[ bonds ]
16403 16405     1    0.143   284512    0.143   284512
[ constraints ] ; from mdp
16405 16406     1   0.1111   0.1111
[ constraints ] ; from mdp
16405 16407     1   0.1111   0.1111
[ bonds ]
16405 16408     1   0.1538   186188   0.1538   186188
[ constraints ] ; from mdp
16408 16409     1   0.1111   0.1111
[ bonds ]
16408 16410     1    0.143   284512    0.143   284512
[ bonds ]
16408 16416     1   0.1538   186188   0.1538   186188
[ bonds ]
16410 16411     1   0.1334   125520   0.1334   125520
[ bonds ]
16411 16412     1    0.122   627600    0.122   627600
[ bonds ]
16411 16413     1   0.1522   167360   0.1522   167360
[ constraints ] ; from mdp
16413 16414     1   0.1111   0.1111
[ constraints ] ; from mdp
16413 16415     1   0.1111   0.1111
[ bonds ]
16413 16425     1    0.153   186188    0.153   186188
[ constraints ] ; from mdp
16416 16417     1   0.1111   0.1111
[ constraints ] ; from mdp
16416 16418     1   0.1111   0.1111
[ bonds ]
16416 16419     1    0.143   284512    0.143   284512
[ bonds ]
16419 16420     1   0.1334   125520   0.1334   125520
[ bonds ]
16420 16421     1    0.122   627600    0.122   627600
[ bonds ]
16420 16422     1   0.1522   167360   0.1522   167360
[ constraints ] ; from mdp
16422 16423     1   0.1111   0.1111
[ constraints ] ; from mdp
16422 16424     1   0.1111   0.1111
[ bonds ]
16422 16468     1    0.153   186188    0.153   186188
[ constraints ] ; from mdp
16425 16426     1   0.1111   0.1111
[ constraints ] ; from mdp
16425 16427     1   0.1111   0.1111
[ bonds ]
16425 16428     1    0.153   186188    0.153   186188
[ constraints ] ; from mdp
16428 16429     1   0.1111   0.1111
[ constraints ] ; from mdp
16428 16430     1   0.1111   0.1111
[ bonds ]
16428 16431     1    0.153   186188    0.153   186188
[ constraints ] ; from mdp
16431 16432     1   0.1111   0.1111
[ constraints ] ; from mdp
16431 16433     1   0.1111   0.1111
[ bonds ]
16431 16434     1    0.153   186188    0.153   186188
[ constraints ] ; from mdp
16434 16435     1   0.1111   0.1111
[ constraints ] ; from mdp
16434 16436     1   0.1111   0.1111
[ bonds ]
16434 16437     1    0.153   186188    0.153   186188
[ constraints ] ; from mdp
16437 16438     1   0.1111   0.1111
[ constraints ] ; from mdp
16437 16439     1   0.1111   0.1111
[ bonds ]
16437 16440     1    0.153   186188    0.153   186188
[ constraints ] ; from mdp
16440 16441     1   0.1111   0.1111
[ constraints ] ; from mdp
16440 16442     1   0.1111   0.1111
[ bonds ]
16440 16443     1    0.153   186188    0.153   186188
[ constraints ] ; from mdp
16443 16444     1   0.1111   0.1111
[ constraints ] ; from mdp
16443 16445     1   0.1111   0.1111
[ bonds ]
16443 16446     1    0.153   186188    0.153   186188
[ constraints ] ; from mdp
16446 16447     1   0.1111   0.1111
[ constraints ] ; from mdp
16446 16448     1   0.1111   0.1111
[ bonds ]
16446 16449     1    0.153   186188    0.153   186188
[ constraints ] ; from mdp
16449 16450     1   0.1111   0.1111
[ constraints ] ; from mdp
16449 16451     1   0.1111   0.1111
[ bonds ]
16449 16452     1    0.153   186188    0.153   186188
[ constraints ] ; from mdp
16452 16453     1   0.1111   0.1111
[ constraints ] ; from mdp
16452 16454     1   0.1111   0.1111
[ bonds ]
16452 16455     1    0.153   186188    0.153   186188
[ constraints ] ; from mdp
16455 16456     1   0.1111   0.1111
[ constraints ] ; from mdp
16455 16457     1   0.1111   0.1111
[ bonds ]
16455 16458     1    0.153   186188    0.153   186188
[ constraints ] ; from mdp
16458 16459     1   0.1111   0.1111
[ constraints ] ; from mdp
16458 16460     1   0.1111   0.1111
[ bonds ]
16458 16461     1    0.153   186188    0.153   186188
[ constraints ] ; from mdp
16461 16462     1   0.1111   0.1111
[ constraints ] ; from mdp
16461 16463     1   0.1111   0.1111
[ bonds ]
16461 16464     1   0.1528   186188   0.1528   186188
[ constraints ] ; from mdp
16464 16465     1   0.1111   0.1111
[ constraints ] ; from mdp
16464 16466     1   0.1111   0.1111
[ constraints ] ; from mdp
16464 16467     1   0.1111   0.1111
[ constraints ] ; from mdp
16468 16469     1   0.1111   0.1111
[ constraints ] ; from mdp
16468 16470     1   0.1111   0.1111
[ bonds ]
16468 16471     1    0.153   186188    0.153   186188
[ constraints ] ; from mdp
16471 16472     1   0.1111   0.1111
[ constraints ] ; from mdp
16471 16473     1   0.1111   0.1111
[ bonds ]
16471 16474     1    0.153   186188    0.153   186188
[ constraints ] ; from mdp
16474 16475     1   0.1111   0.1111
[ constraints ] ; from mdp
16474 16476     1   0.1111   0.1111
[ bonds ]
16474 16477     1    0.153   186188    0.153   186188
[ constraints ] ; from mdp
16477 16478     1   0.1111   0.1111
[ constraints ] ; from mdp
16477 16479     1   0.1111   0.1111
[ bonds ]
16477 16480     1    0.153   186188    0.153   186188
[ constraints ] ; from mdp
16480 16481     1   0.1111   0.1111
[ constraints ] ; from mdp
16480 16482     1   0.1111   0.1111
[ bonds ]
16480 16483     1    0.153   186188    0.153   186188
[ constraints ] ; from mdp
16483 16484     1   0.1111   0.1111
[ constraints ] ; from mdp
16483 16485     1   0.1111   0.1111
[ bonds ]
16483 16486     1    0.153   186188    0.153   186188
[ constraints ] ; from mdp
16486 16487     1   0.1111   0.1111
[ constraints ] ; from mdp
16486 16488     1   0.1111   0.1111
[ bonds ]
16486 16489     1    0.153   186188    0.153   186188
[ constraints ] ; from mdp
16489 16490     1   0.1111   0.1111
[ constraints ] ; from mdp
16489 16491     1   0.1111   0.1111
[ bonds ]
16489 16492     1    0.153   186188    0.153   186188
[ constraints ] ; from mdp
16492 16493     1   0.1111   0.1111
[ constraints ] ; from mdp
16492 16494     1   0.1111   0.1111
[ bonds ]
16492 16495     1    0.153   186188    0.153   186188
[ constraints ] ; from mdp
16495 16496     1   0.1111   0.1111
[ constraints ] ; from mdp
16495 16497     1   0.1111   0.1111
[ bonds ]
16495 16498     1    0.153   186188    0.153   186188
[ constraints ] ; from mdp
16498 16499     1   0.1111   0.1111
[ constraints ] ; from mdp
16498 16500     1   0.1111   0.1111
[ bonds ]
16498 16501     1    0.153   186188    0.153   186188
[ constraints ] ; from mdp
16501 16502     1   0.1111   0.1111
[ constraints ] ; from mdp
16501 16503     1   0.1111   0.1111
[ bonds ]
16501 16504     1    0.153   186188    0.153   186188
[ constraints ] ; from mdp
16504 16505     1   0.1111   0.1111
[ constraints ] ; from mdp
16504 16506     1   0.1111   0.1111
[ bonds ]
16504 16507     1   0.1528   186188   0.1528   186188
[ constraints ] ; from mdp
16507 16508     1   0.1111   0.1111
[ constraints ] ; from mdp
16507 16509     1   0.1111   0.1111
[ constraints ] ; from mdp
16507 16510     1   0.1111   0.1111
[ bonds ]
16511 16512     1    0.151   179912    0.151   179912
[ bonds ]
16511 16516     1    0.151   179912    0.151   179912
[ bonds ]
16511 16520     1    0.151   179912    0.151   179912
[ bonds ]
16511 16524     1    0.151   179912    0.151   179912
[ constraints ] ; from mdp
16512 16513     1    0.108    0.108
[ constraints ] ; from mdp
16512 16514     1    0.108    0.108
[ constraints ] ; from mdp
16512 16515     1    0.108    0.108
[ constraints ] ; from mdp
16516 16517     1    0.108    0.108
[ constraints ] ; from mdp
16516 16518     1    0.108    0.108
[ constraints ] ; from mdp
16516 16519     1    0.108    0.108
[ constraints ] ; from mdp
16520 16521     1    0.108    0.108
[ constraints ] ; from mdp
16520 16522     1    0.108    0.108
[ constraints ] ; from mdp
16520 16523     1    0.108    0.108
[ constraints ] ; from mdp
16524 16525     1    0.108    0.108
[ constraints ] ; from mdp
16524 16526     1    0.108    0.108
[ bonds ]
16524 16527     1    0.153   186188    0.153   186188
[ constraints ] ; from mdp
16527 16528     1   0.1111   0.1111
[ constraints ] ; from mdp
16527 16529     1   0.1111   0.1111
[ bonds ]
16527 16534     1    0.143   284512    0.143   284512
[ bonds ]
16530 16531     1    0.148   485344    0.148   485344
[ bonds ]
16530 16532     1    0.148   485344    0.148   485344
[ bonds ]
16530 16533     1     0.16   225936     0.16   225936
[ bonds ]
16530 16534     1     0.16   225936     0.16   225936
[ bonds ]
16533 16535     1    0.143   284512    0.143   284512
[ constraints ] ; from mdp
16535 16536     1   0.1111   0.1111
[ constraints ] ; from mdp
16535 16537     1   0.1111   0.1111
[ bonds ]
16535 16538     1   0.1538   186188   0.1538   186188
[ constraints ] ; from mdp
16538 16539     1   0.1111   0.1111
[ bonds ]
16538 16540     1    0.143   284512    0.143   284512
[ bonds ]
16538 16546     1   0.1538   186188   0.1538   186188
[ bonds ]
16540 16541     1   0.1334   125520   0.1334   125520
[ bonds ]
16541 16542     1    0.122   627600    0.122   627600
[ bonds ]
16541 16543     1   0.1522   167360   0.1522   167360
[ constraints ] ; from mdp
16543 16544     1   0.1111   0.1111
[ constraints ] ; from mdp
16543 16545     1   0.1111   0.1111
[ bonds ]
16543 16555     1    0.153   186188    0.153   186188
[ constraints ] ; from mdp
16546 16547     1   0.1111   0.1111
[ constraints ] ; from mdp
16546 16548     1   0.1111   0.1111
[ bonds ]
16546 16549     1    0.143   284512    0.143   284512
[ bonds ]
16549 16550     1   0.1334   125520   0.1334   125520
[ bonds ]
16550 16551     1    0.122   627600    0.122   627600
[ bonds ]
16550 16552     1   0.1522   167360   0.1522   167360
[ constraints ] ; from mdp
16552 16553     1   0.1111   0.1111
[ constraints ] ; from mdp
16552 16554     1   0.1111   0.1111
[ bonds ]
16552 16598     1    0.153   186188    0.153   186188
[ constraints ] ; from mdp
16555 16556     1   0.1111   0.1111
[ constraints ] ; from mdp
16555 16557     1   0.1111   0.1111
[ bonds ]
16555 16558     1    0.153   186188    0.153   186188
[ constraints ] ; from mdp
16558 16559     1   0.1111   0.1111
[ constraints ] ; from mdp
16558 16560     1   0.1111   0.1111
[ bonds ]
16558 16561     1    0.153   186188    0.153   186188
[ constraints ] ; from mdp
16561 16562     1   0.1111   0.1111
[ constraints ] ; from mdp
16561 16563     1   0.1111   0.1111
[ bonds ]
16561 16564     1    0.153   186188    0.153   186188
[ constraints ] ; from mdp
16564 16565     1   0.1111   0.1111
[ constraints ] ; from mdp
16564 16566     1   0.1111   0.1111
[ bonds ]
16564 16567     1    0.153   186188    0.153   186188
[ constraints ] ; from mdp
16567 16568     1   0.1111   0.1111
[ constraints ] ; from mdp
16567 16569     1   0.1111   0.1111
[ bonds ]
16567 16570     1    0.153   186188    0.153   186188
[ constraints ] ; from mdp
16570 16571     1   0.1111   0.1111
[ constraints ] ; from mdp
16570 16572     1   0.1111   0.1111
[ bonds ]
16570 16573     1    0.153   186188    0.153   186188
[ constraints ] ; from mdp
16573 16574     1   0.1111   0.1111
[ constraints ] ; from mdp
16573 16575     1   0.1111   0.1111
[ bonds ]
16573 16576     1    0.153   186188    0.153   186188
[ constraints ] ; from mdp
16576 16577     1   0.1111   0.1111
[ constraints ] ; from mdp
16576 16578     1   0.1111   0.1111
[ bonds ]
16576 16579     1    0.153   186188    0.153   186188
[ constraints ] ; from mdp
16579 16580     1   0.1111   0.1111
[ constraints ] ; from mdp
16579 16581     1   0.1111   0.1111
[ bonds ]
16579 16582     1    0.153   186188    0.153   186188
[ constraints ] ; from mdp
16582 16583     1   0.1111   0.1111
[ constraints ] ; from mdp
16582 16584     1   0.1111   0.1111
[ bonds ]
16582 16585     1    0.153   186188    0.153   186188
[ constraints ] ; from mdp
16585 16586     1   0.1111   0.1111
[ constraints ] ; from mdp
16585 16587     1   0.1111   0.1111
[ bonds ]
16585 16588     1    0.153   186188    0.153   186188
[ constraints ] ; from mdp
16588 16589     1   0.1111   0.1111
[ constraints ] ; from mdp
16588 16590     1   0.1111   0.1111
[ bonds ]
16588 16591     1    0.153   186188    0.153   186188
[ constraints ] ; from mdp
16591 16592     1   0.1111   0.1111
[ constraints ] ; from mdp
16591 16593     1   0.1111   0.1111
[ bonds ]
16591 16594     1   0.1528   186188   0.1528   186188
[ constraints ] ; from mdp
16594 16595     1   0.1111   0.1111
[ constraints ] ; from mdp
16594 16596     1   0.1111   0.1111
[ constraints ] ; from mdp
16594 16597     1   0.1111   0.1111
[ constraints ] ; from mdp
16598 16599     1   0.1111   0.1111
[ constraints ] ; from mdp
16598 16600     1   0.1111   0.1111
[ bonds ]
16598 16601     1    0.153   186188    0.153   186188
[ constraints ] ; from mdp
16601 16602     1   0.1111   0.1111
[ constraints ] ; from mdp
16601 16603     1   0.1111   0.1111
[ bonds ]
16601 16604     1    0.153   186188    0.153   186188
[ constraints ] ; from mdp
16604 16605     1   0.1111   0.1111
[ constraints ] ; from mdp
16604 16606     1   0.1111   0.1111
[ bonds ]
16604 16607     1    0.153   186188    0.153   186188
[ constraints ] ; from mdp
16607 16608     1   0.1111   0.1111
[ constraints ] ; from mdp
16607 16609     1   0.1111   0.1111
[ bonds ]
16607 16610     1    0.153   186188    0.153   186188
[ constraints ] ; from mdp
16610 16611     1   0.1111   0.1111
[ constraints ] ; from mdp
16610 16612     1   0.1111   0.1111
[ bonds ]
16610 16613     1    0.153   186188    0.153   186188
[ constraints ] ; from mdp
16613 16614     1   0.1111   0.1111
[ constraints ] ; from mdp
16613 16615     1   0.1111   0.1111
[ bonds ]
16613 16616     1    0.153   186188    0.153   186188
[ constraints ] ; from mdp
16616 16617     1   0.1111   0.1111
[ constraints ] ; from mdp
16616 16618     1   0.1111   0.1111
[ bonds ]
16616 16619     1    0.153   186188    0.153   186188
[ constraints ] ; from mdp
16619 16620     1   0.1111   0.1111
[ constraints ] ; from mdp
16619 16621     1   0.1111   0.1111
[ bonds ]
16619 16622     1    0.153   186188    0.153   186188
[ constraints ] ; from mdp
16622 16623     1   0.1111   0.1111
[ constraints ] ; from mdp
16622 16624     1   0.1111   0.1111
[ bonds ]
16622 16625     1    0.153   186188    0.153   186188
[ constraints ] ; from mdp
16625 16626     1   0.1111   0.1111
[ constraints ] ; from mdp
16625 16627     1   0.1111   0.1111
[ bonds ]
16625 16628     1    0.153   186188    0.153   186188
[ constraints ] ; from mdp
16628 16629     1   0.1111   0.1111
[ constraints ] ; from mdp
16628 16630     1   0.1111   0.1111
[ bonds ]
16628 16631     1    0.153   186188    0.153   186188
[ constraints ] ; from mdp
16631 16632     1   0.1111   0.1111
[ constraints ] ; from mdp
16631 16633     1   0.1111   0.1111
[ bonds ]
16631 16634     1    0.153   186188    0.153   186188
[ constraints ] ; from mdp
16634 16635     1   0.1111   0.1111
[ constraints ] ; from mdp
16634 16636     1   0.1111   0.1111
[ bonds ]
16634 16637     1   0.1528   186188   0.1528   186188
[ constraints ] ; from mdp
16637 16638     1   0.1111   0.1111
[ constraints ] ; from mdp
16637 16639     1   0.1111   0.1111
[ constraints ] ; from mdp
16637 16640     1   0.1111   0.1111
[ bonds ]
16665 16666     1  0.09572  0.15139
[ bonds ]
16665 16667     1  0.09572  0.15139
[ bonds ]
16668 16669     1  0.09572  0.15139
[ bonds ]
16668 16670     1  0.09572  0.15139
[ bonds ]
16671 16672     1  0.09572  0.15139
[ bonds ]
16671 16673     1  0.09572  0.15139
[ bonds ]
16674 16675     1  0.09572  0.15139
[ bonds ]
16674 16676     1  0.09572  0.15139
[ bonds ]
16677 16678     1  0.09572  0.15139
[ bonds ]
16677 16679     1  0.09572  0.15139
[ bonds ]
16680 16681     1  0.09572  0.15139
[ bonds ]
16680 16682     1  0.09572  0.15139
[ bonds ]
16683 16684     1  0.09572  0.15139
[ bonds ]
16683 16685     1  0.09572  0.15139
[ bonds ]
16686 16687     1  0.09572  0.15139
[ bonds ]
16686 16688     1  0.09572  0.15139
[ bonds ]
16689 16690     1  0.09572  0.15139
[ bonds ]
16689 16691     1  0.09572  0.15139
[ bonds ]
16692 16693     1  0.09572  0.15139
[ bonds ]
16692 16694     1  0.09572  0.15139
[ bonds ]
16695 16696     1  0.09572  0.15139
[ bonds ]
16695 16697     1  0.09572  0.15139
[ bonds ]
16698 16699     1  0.09572  0.15139
[ bonds ]
16698 16700     1  0.09572  0.15139
[ bonds ]
16701 16702     1  0.09572  0.15139
[ bonds ]
16701 16703     1  0.09572  0.15139
[ bonds ]
16704 16705     1  0.09572  0.15139
[ bonds ]
16704 16706     1  0.09572  0.15139
[ bonds ]
16707 16708     1  0.09572  0.15139
[ bonds ]
16707 16709     1  0.09572  0.15139
[ bonds ]
16710 16711     1  0.09572  0.15139
[ bonds ]
16710 16712     1  0.09572  0.15139
[ bonds ]
16713 16714     1  0.09572  0.15139
[ bonds ]
16713 16715     1  0.09572  0.15139
[ bonds ]
16716 16717     1  0.09572  0.15139
[ bonds ]
16716 16718     1  0.09572  0.15139
[ bonds ]
16719 16720     1  0.09572  0.15139
[ bonds ]
16719 16721     1  0.09572  0.15139
[ bonds ]
16722 16723     1  0.09572  0.15139
[ bonds ]
16722 16724     1  0.09572  0.15139
[ bonds ]
16725 16726     1  0.09572  0.15139
[ bonds ]
16725 16727     1  0.09572  0.15139
[ bonds ]
16728 16729     1  0.09572  0.15139
[ bonds ]
16728 16730     1  0.09572  0.15139
[ bonds ]
16731 16732     1  0.09572  0.15139
[ bonds ]
16731 16733     1  0.09572  0.15139
[ bonds ]
16734 16735     1  0.09572  0.15139
[ bonds ]
16734 16736     1  0.09572  0.15139
[ bonds ]
16737 16738     1  0.09572  0.15139
[ bonds ]
16737 16739     1  0.09572  0.15139
[ bonds ]
16740 16741     1  0.09572  0.15139
[ bonds ]
16740 16742     1  0.09572  0.15139
[ bonds ]
16743 16744     1  0.09572  0.15139
[ bonds ]
16743 16745     1  0.09572  0.15139
[ bonds ]
16746 16747     1  0.09572  0.15139
[ bonds ]
16746 16748     1  0.09572  0.15139
[ bonds ]
16749 16750     1  0.09572  0.15139
[ bonds ]
16749 16751     1  0.09572  0.15139
[ bonds ]
16752 16753     1  0.09572  0.15139
[ bonds ]
16752 16754     1  0.09572  0.15139
[ bonds ]
16755 16756     1  0.09572  0.15139
[ bonds ]
16755 16757     1  0.09572  0.15139
[ bonds ]
16758 16759     1  0.09572  0.15139
[ bonds ]
16758 16760     1  0.09572  0.15139
[ bonds ]
16761 16762     1  0.09572  0.15139
[ bonds ]
16761 16763     1  0.09572  0.15139
[ bonds ]
16764 16765     1  0.09572  0.15139
[ bonds ]
16764 16766     1  0.09572  0.15139
[ bonds ]
16767 16768     1  0.09572  0.15139
[ bonds ]
16767 16769     1  0.09572  0.15139
[ bonds ]
16770 16771     1  0.09572  0.15139
[ bonds ]
16770 16772     1  0.09572  0.15139
[ bonds ]
16773 16774     1  0.09572  0.15139
[ bonds ]
16773 16775     1  0.09572  0.15139
[ bonds ]
16776 16777     1  0.09572  0.15139
[ bonds ]
16776 16778     1  0.09572  0.15139
[ bonds ]
16779 16780     1  0.09572  0.15139
[ bonds ]
16779 16781     1  0.09572  0.15139
[ bonds ]
16782 16783     1  0.09572  0.15139
[ bonds ]
16782 16784     1  0.09572  0.15139
[ bonds ]
16785 16786     1  0.09572  0.15139
[ bonds ]
16785 16787     1  0.09572  0.15139
[ bonds ]
16788 16789     1  0.09572  0.15139
[ bonds ]
16788 16790     1  0.09572  0.15139
[ bonds ]
16791 16792     1  0.09572  0.15139
[ bonds ]
16791 16793     1  0.09572  0.15139
[ bonds ]
16794 16795     1  0.09572  0.15139
[ bonds ]
16794 16796     1  0.09572  0.15139
[ bonds ]
16797 16798     1  0.09572  0.15139
[ bonds ]
16797 16799     1  0.09572  0.15139
[ bonds ]
16800 16801     1  0.09572  0.15139
[ bonds ]
16800 16802     1  0.09572  0.15139
[ bonds ]
16803 16804     1  0.09572  0.15139
[ bonds ]
16803 16805     1  0.09572  0.15139
[ bonds ]
16806 16807     1  0.09572  0.15139
[ bonds ]
16806 16808     1  0.09572  0.15139
[ bonds ]
16809 16810     1  0.09572  0.15139
[ bonds ]
16809 16811     1  0.09572  0.15139
[ bonds ]
16812 16813     1  0.09572  0.15139
[ bonds ]
16812 16814     1  0.09572  0.15139
[ bonds ]
16815 16816     1  0.09572  0.15139
[ bonds ]
16815 16817     1  0.09572  0.15139
[ bonds ]
16818 16819     1  0.09572  0.15139
[ bonds ]
16818 16820     1  0.09572  0.15139
[ bonds ]
16821 16822     1  0.09572  0.15139
[ bonds ]
16821 16823     1  0.09572  0.15139
[ bonds ]
16824 16825     1  0.09572  0.15139
[ bonds ]
16824 16826     1  0.09572  0.15139
[ bonds ]
16827 16828     1  0.09572  0.15139
[ bonds ]
16827 16829     1  0.09572  0.15139
[ bonds ]
16830 16831     1  0.09572  0.15139
[ bonds ]
16830 16832     1  0.09572  0.15139
[ bonds ]
16833 16834     1  0.09572  0.15139
[ bonds ]
16833 16835     1  0.09572  0.15139
[ bonds ]
16836 16837     1  0.09572  0.15139
[ bonds ]
16836 16838     1  0.09572  0.15139
[ bonds ]
16839 16840     1  0.09572  0.15139
[ bonds ]
16839 16841     1  0.09572  0.15139
[ bonds ]
16842 16843     1  0.09572  0.15139
[ bonds ]
16842 16844     1  0.09572  0.15139
[ bonds ]
16845 16846     1  0.09572  0.15139
[ bonds ]
16845 16847     1  0.09572  0.15139
[ bonds ]
16848 16849     1  0.09572  0.15139
[ bonds ]
16848 16850     1  0.09572  0.15139
[ bonds ]
16851 16852     1  0.09572  0.15139
[ bonds ]
16851 16853     1  0.09572  0.15139
[ bonds ]
16854 16855     1  0.09572  0.15139
[ bonds ]
16854 16856     1  0.09572  0.15139
[ bonds ]
16857 16858     1  0.09572  0.15139
[ bonds ]
16857 16859     1  0.09572  0.15139
[ bonds ]
16860 16861     1  0.09572  0.15139
[ bonds ]
16860 16862     1  0.09572  0.15139
[ bonds ]
16863 16864     1  0.09572  0.15139
[ bonds ]
16863 16865     1  0.09572  0.15139
[ bonds ]
16866 16867     1  0.09572  0.15139
[ bonds ]
16866 16868     1  0.09572  0.15139
[ bonds ]
16869 16870     1  0.09572  0.15139
[ bonds ]
16869 16871     1  0.09572  0.15139
[ bonds ]
16872 16873     1  0.09572  0.15139
[ bonds ]
16872 16874     1  0.09572  0.15139
[ bonds ]
16875 16876     1  0.09572  0.15139
[ bonds ]
16875 16877     1  0.09572  0.15139
[ bonds ]
16878 16879     1  0.09572  0.15139
[ bonds ]
16878 16880     1  0.09572  0.15139
[ bonds ]
16881 16882     1  0.09572  0.15139
[ bonds ]
16881 16883     1  0.09572  0.15139
[ bonds ]
16884 16885     1  0.09572  0.15139
[ bonds ]
16884 16886     1  0.09572  0.15139
[ bonds ]
16887 16888     1  0.09572  0.15139
[ bonds ]
16887 16889     1  0.09572  0.15139
[ bonds ]
16890 16891     1  0.09572  0.15139
[ bonds ]
16890 16892     1  0.09572  0.15139
[ bonds ]
16893 16894     1  0.09572  0.15139
[ bonds ]
16893 16895     1  0.09572  0.15139
[ bonds ]
16896 16897     1  0.09572  0.15139
[ bonds ]
16896 16898     1  0.09572  0.15139
[ bonds ]
16899 16900     1  0.09572  0.15139
[ bonds ]
16899 16901     1  0.09572  0.15139
[ bonds ]
16902 16903     1  0.09572  0.15139
[ bonds ]
16902 16904     1  0.09572  0.15139
[ bonds ]
16905 16906     1  0.09572  0.15139
[ bonds ]
16905 16907     1  0.09572  0.15139
[ bonds ]
16908 16909     1  0.09572  0.15139
[ bonds ]
16908 16910     1  0.09572  0.15139
[ bonds ]
16911 16912     1  0.09572  0.15139
[ bonds ]
16911 16913     1  0.09572  0.15139
[ bonds ]
16914 16915     1  0.09572  0.15139
[ bonds ]
16914 16916     1  0.09572  0.15139
[ bonds ]
16917 16918     1  0.09572  0.15139
[ bonds ]
16917 16919     1  0.09572  0.15139
[ bonds ]
16920 16921     1  0.09572  0.15139
[ bonds ]
16920 16922     1  0.09572  0.15139
[ bonds ]
16923 16924     1  0.09572  0.15139
[ bonds ]
16923 16925     1  0.09572  0.15139
[ bonds ]
16926 16927     1  0.09572  0.15139
[ bonds ]
16926 16928     1  0.09572  0.15139
[ bonds ]
16929 16930     1  0.09572  0.15139
[ bonds ]
16929 16931     1  0.09572  0.15139
[ bonds ]
16932 16933     1  0.09572  0.15139
[ bonds ]
16932 16934     1  0.09572  0.15139
[ bonds ]
16935 16936     1  0.09572  0.15139
[ bonds ]
16935 16937     1  0.09572  0.15139
[ bonds ]
16938 16939     1  0.09572  0.15139
[ bonds ]
16938 16940     1  0.09572  0.15139
[ bonds ]
16941 16942     1  0.09572  0.15139
[ bonds ]
16941 16943     1  0.09572  0.15139
[ bonds ]
16944 16945     1  0.09572  0.15139
[ bonds ]
16944 16946     1  0.09572  0.15139
[ bonds ]
16947 16948     1  0.09572  0.15139
[ bonds ]
16947 16949     1  0.09572  0.15139
[ bonds ]
16950 16951     1  0.09572  0.15139
[ bonds ]
16950 16952     1  0.09572  0.15139
[ bonds ]
16953 16954     1  0.09572  0.15139
[ bonds ]
16953 16955     1  0.09572  0.15139
[ bonds ]
16956 16957     1  0.09572  0.15139
[ bonds ]
16956 16958     1  0.09572  0.15139
[ bonds ]
16959 16960     1  0.09572  0.15139
[ bonds ]
16959 16961     1  0.09572  0.15139
[ bonds ]
16962 16963     1  0.09572  0.15139
[ bonds ]
16962 16964     1  0.09572  0.15139
[ bonds ]
16965 16966     1  0.09572  0.15139
[ bonds ]
16965 16967     1  0.09572  0.15139
[ bonds ]
16968 16969     1  0.09572  0.15139
[ bonds ]
16968 16970     1  0.09572  0.15139
[ bonds ]
16971 16972     1  0.09572  0.15139
[ bonds ]
16971 16973     1  0.09572  0.15139
[ bonds ]
16974 16975     1  0.09572  0.15139
[ bonds ]
16974 16976     1  0.09572  0.15139
[ bonds ]
16977 16978     1  0.09572  0.15139
[ bonds ]
16977 16979     1  0.09572  0.15139
[ bonds ]
16980 16981     1  0.09572  0.15139
[ bonds ]
16980 16982     1  0.09572  0.15139
[ bonds ]
16983 16984     1  0.09572  0.15139
[ bonds ]
16983 16985     1  0.09572  0.15139
[ bonds ]
16986 16987     1  0.09572  0.15139
[ bonds ]
16986 16988     1  0.09572  0.15139
[ bonds ]
16989 16990     1  0.09572  0.15139
[ bonds ]
16989 16991     1  0.09572  0.15139
[ bonds ]
16992 16993     1  0.09572  0.15139
[ bonds ]
16992 16994     1  0.09572  0.15139
[ bonds ]
16995 16996     1  0.09572  0.15139
[ bonds ]
16995 16997     1  0.09572  0.15139
[ bonds ]
16998 16999     1  0.09572  0.15139
[ bonds ]
16998 17000     1  0.09572  0.15139
[ bonds ]
17001 17002     1  0.09572  0.15139
[ bonds ]
17001 17003     1  0.09572  0.15139
[ bonds ]
17004 17005     1  0.09572  0.15139
[ bonds ]
17004 17006     1  0.09572  0.15139
[ bonds ]
17007 17008     1  0.09572  0.15139
[ bonds ]
17007 17009     1  0.09572  0.15139
[ bonds ]
17010 17011     1  0.09572  0.15139
[ bonds ]
17010 17012     1  0.09572  0.15139
[ bonds ]
17013 17014     1  0.09572  0.15139
[ bonds ]
17013 17015     1  0.09572  0.15139
[ bonds ]
17016 17017     1  0.09572  0.15139
[ bonds ]
17016 17018     1  0.09572  0.15139
[ bonds ]
17019 17020     1  0.09572  0.15139
[ bonds ]
17019 17021     1  0.09572  0.15139
[ bonds ]
17022 17023     1  0.09572  0.15139
[ bonds ]
17022 17024     1  0.09572  0.15139
[ bonds ]
17025 17026     1  0.09572  0.15139
[ bonds ]
17025 17027     1  0.09572  0.15139
[ bonds ]
17028 17029     1  0.09572  0.15139
[ bonds ]
17028 17030     1  0.09572  0.15139
[ bonds ]
17031 17032     1  0.09572  0.15139
[ bonds ]
17031 17033     1  0.09572  0.15139
[ bonds ]
17034 17035     1  0.09572  0.15139
[ bonds ]
17034 17036     1  0.09572  0.15139
[ bonds ]
17037 17038     1  0.09572  0.15139
[ bonds ]
17037 17039     1  0.09572  0.15139
[ bonds ]
17040 17041     1  0.09572  0.15139
[ bonds ]
17040 17042     1  0.09572  0.15139
[ bonds ]
17043 17044     1  0.09572  0.15139
[ bonds ]
17043 17045     1  0.09572  0.15139
[ bonds ]
17046 17047     1  0.09572  0.15139
[ bonds ]
17046 17048     1  0.09572  0.15139
[ bonds ]
17049 17050     1  0.09572  0.15139
[ bonds ]
17049 17051     1  0.09572  0.15139
[ bonds ]
17052 17053     1  0.09572  0.15139
[ bonds ]
17052 17054     1  0.09572  0.15139
[ bonds ]
17055 17056     1  0.09572  0.15139
[ bonds ]
17055 17057     1  0.09572  0.15139
[ bonds ]
17058 17059     1  0.09572  0.15139
[ bonds ]
17058 17060     1  0.09572  0.15139
[ bonds ]
17061 17062     1  0.09572  0.15139
[ bonds ]
17061 17063     1  0.09572  0.15139
[ bonds ]
17064 17065     1  0.09572  0.15139
[ bonds ]
17064 17066     1  0.09572  0.15139
[ bonds ]
17067 17068     1  0.09572  0.15139
[ bonds ]
17067 17069     1  0.09572  0.15139
[ bonds ]
17070 17071     1  0.09572  0.15139
[ bonds ]
17070 17072     1  0.09572  0.15139
[ bonds ]
17073 17074     1  0.09572  0.15139
[ bonds ]
17073 17075     1  0.09572  0.15139
[ bonds ]
17076 17077     1  0.09572  0.15139
[ bonds ]
17076 17078     1  0.09572  0.15139
[ bonds ]
17079 17080     1  0.09572  0.15139
[ bonds ]
17079 17081     1  0.09572  0.15139
[ bonds ]
17082 17083     1  0.09572  0.15139
[ bonds ]
17082 17084     1  0.09572  0.15139
[ bonds ]
17085 17086     1  0.09572  0.15139
[ bonds ]
17085 17087     1  0.09572  0.15139
[ bonds ]
17088 17089     1  0.09572  0.15139
[ bonds ]
17088 17090     1  0.09572  0.15139
[ bonds ]
17091 17092     1  0.09572  0.15139
[ bonds ]
17091 17093     1  0.09572  0.15139
[ bonds ]
17094 17095     1  0.09572  0.15139
[ bonds ]
17094 17096     1  0.09572  0.15139
[ bonds ]
17097 17098     1  0.09572  0.15139
[ bonds ]
17097 17099     1  0.09572  0.15139
[ bonds ]
17100 17101     1  0.09572  0.15139
[ bonds ]
17100 17102     1  0.09572  0.15139
[ bonds ]
17103 17104     1  0.09572  0.15139
[ bonds ]
17103 17105     1  0.09572  0.15139
[ bonds ]
17106 17107     1  0.09572  0.15139
[ bonds ]
17106 17108     1  0.09572  0.15139
[ bonds ]
17109 17110     1  0.09572  0.15139
[ bonds ]
17109 17111     1  0.09572  0.15139
[ bonds ]
17112 17113     1  0.09572  0.15139
[ bonds ]
17112 17114     1  0.09572  0.15139
[ bonds ]
17115 17116     1  0.09572  0.15139
[ bonds ]
17115 17117     1  0.09572  0.15139
[ bonds ]
17118 17119     1  0.09572  0.15139
[ bonds ]
17118 17120     1  0.09572  0.15139
[ bonds ]
17121 17122     1  0.09572  0.15139
[ bonds ]
17121 17123     1  0.09572  0.15139
[ bonds ]
17124 17125     1  0.09572  0.15139
[ bonds ]
17124 17126     1  0.09572  0.15139
[ bonds ]
17127 17128     1  0.09572  0.15139
[ bonds ]
17127 17129     1  0.09572  0.15139
[ bonds ]
17130 17131     1  0.09572  0.15139
[ bonds ]
17130 17132     1  0.09572  0.15139
[ bonds ]
17133 17134     1  0.09572  0.15139
[ bonds ]
17133 17135     1  0.09572  0.15139
[ bonds ]
17136 17137     1  0.09572  0.15139
[ bonds ]
17136 17138     1  0.09572  0.15139
[ bonds ]
17139 17140     1  0.09572  0.15139
[ bonds ]
17139 17141     1  0.09572  0.15139
[ bonds ]
17142 17143     1  0.09572  0.15139
[ bonds ]
17142 17144     1  0.09572  0.15139
[ bonds ]
17145 17146     1  0.09572  0.15139
[ bonds ]
17145 17147     1  0.09572  0.15139
[ bonds ]
17148 17149     1  0.09572  0.15139
[ bonds ]
17148 17150     1  0.09572  0.15139
[ bonds ]
17151 17152     1  0.09572  0.15139
[ bonds ]
17151 17153     1  0.09572  0.15139
[ bonds ]
17154 17155     1  0.09572  0.15139
[ bonds ]
17154 17156     1  0.09572  0.15139
[ bonds ]
17157 17158     1  0.09572  0.15139
[ bonds ]
17157 17159     1  0.09572  0.15139
[ bonds ]
17160 17161     1  0.09572  0.15139
[ bonds ]
17160 17162     1  0.09572  0.15139
[ bonds ]
17163 17164     1  0.09572  0.15139
[ bonds ]
17163 17165     1  0.09572  0.15139
[ bonds ]
17166 17167     1  0.09572  0.15139
[ bonds ]
17166 17168     1  0.09572  0.15139
[ bonds ]
17169 17170     1  0.09572  0.15139
[ bonds ]
17169 17171     1  0.09572  0.15139
[ bonds ]
17172 17173     1  0.09572  0.15139
[ bonds ]
17172 17174     1  0.09572  0.15139
[ bonds ]
17175 17176     1  0.09572  0.15139
[ bonds ]
17175 17177     1  0.09572  0.15139
[ bonds ]
17178 17179     1  0.09572  0.15139
[ bonds ]
17178 17180     1  0.09572  0.15139
[ bonds ]
17181 17182     1  0.09572  0.15139
[ bonds ]
17181 17183     1  0.09572  0.15139
[ bonds ]
17184 17185     1  0.09572  0.15139
[ bonds ]
17184 17186     1  0.09572  0.15139
[ bonds ]
17187 17188     1  0.09572  0.15139
[ bonds ]
17187 17189     1  0.09572  0.15139
[ bonds ]
17190 17191     1  0.09572  0.15139
[ bonds ]
17190 17192     1  0.09572  0.15139
[ bonds ]
17193 17194     1  0.09572  0.15139
[ bonds ]
17193 17195     1  0.09572  0.15139
[ bonds ]
17196 17197     1  0.09572  0.15139
[ bonds ]
17196 17198     1  0.09572  0.15139
[ bonds ]
17199 17200     1  0.09572  0.15139
[ bonds ]
17199 17201     1  0.09572  0.15139
[ bonds ]
17202 17203     1  0.09572  0.15139
[ bonds ]
17202 17204     1  0.09572  0.15139
[ bonds ]
17205 17206     1  0.09572  0.15139
[ bonds ]
17205 17207     1  0.09572  0.15139
[ bonds ]
17208 17209     1  0.09572  0.15139
[ bonds ]
17208 17210     1  0.09572  0.15139
[ bonds ]
17211 17212     1  0.09572  0.15139
[ bonds ]
17211 17213     1  0.09572  0.15139
[ bonds ]
17214 17215     1  0.09572  0.15139
[ bonds ]
17214 17216     1  0.09572  0.15139
[ bonds ]
17217 17218     1  0.09572  0.15139
[ bonds ]
17217 17219     1  0.09572  0.15139
[ bonds ]
17220 17221     1  0.09572  0.15139
[ bonds ]
17220 17222     1  0.09572  0.15139
[ bonds ]
17223 17224     1  0.09572  0.15139
[ bonds ]
17223 17225     1  0.09572  0.15139
[ bonds ]
17226 17227     1  0.09572  0.15139
[ bonds ]
17226 17228     1  0.09572  0.15139
[ bonds ]
17229 17230     1  0.09572  0.15139
[ bonds ]
17229 17231     1  0.09572  0.15139
[ bonds ]
17232 17233     1  0.09572  0.15139
[ bonds ]
17232 17234     1  0.09572  0.15139
[ bonds ]
17235 17236     1  0.09572  0.15139
[ bonds ]
17235 17237     1  0.09572  0.15139
[ bonds ]
17238 17239     1  0.09572  0.15139
[ bonds ]
17238 17240     1  0.09572  0.15139
[ bonds ]
17241 17242     1  0.09572  0.15139
[ bonds ]
17241 17243     1  0.09572  0.15139
[ bonds ]
17244 17245     1  0.09572  0.15139
[ bonds ]
17244 17246     1  0.09572  0.15139
[ bonds ]
17247 17248     1  0.09572  0.15139
[ bonds ]
17247 17249     1  0.09572  0.15139
[ bonds ]
17250 17251     1  0.09572  0.15139
[ bonds ]
17250 17252     1  0.09572  0.15139
[ bonds ]
17253 17254     1  0.09572  0.15139
[ bonds ]
17253 17255     1  0.09572  0.15139
[ bonds ]
17256 17257     1  0.09572  0.15139
[ bonds ]
17256 17258     1  0.09572  0.15139
[ bonds ]
17259 17260     1  0.09572  0.15139
[ bonds ]
17259 17261     1  0.09572  0.15139
[ bonds ]
17262 17263     1  0.09572  0.15139
[ bonds ]
17262 17264     1  0.09572  0.15139
[ bonds ]
17265 17266     1  0.09572  0.15139
[ bonds ]
17265 17267     1  0.09572  0.15139
[ bonds ]
17268 17269     1  0.09572  0.15139
[ bonds ]
17268 17270     1  0.09572  0.15139
[ bonds ]
17271 17272     1  0.09572  0.15139
[ bonds ]
17271 17273     1  0.09572  0.15139
[ bonds ]
17274 17275     1  0.09572  0.15139
[ bonds ]
17274 17276     1  0.09572  0.15139
[ bonds ]
17277 17278     1  0.09572  0.15139
[ bonds ]
17277 17279     1  0.09572  0.15139
[ bonds ]
17280 17281     1  0.09572  0.15139
[ bonds ]
17280 17282     1  0.09572  0.15139
[ bonds ]
17283 17284     1  0.09572  0.15139
[ bonds ]
17283 17285     1  0.09572  0.15139
[ bonds ]
17286 17287     1  0.09572  0.15139
[ bonds ]
17286 17288     1  0.09572  0.15139
[ bonds ]
17289 17290     1  0.09572  0.15139
[ bonds ]
17289 17291     1  0.09572  0.15139
[ bonds ]
17292 17293     1  0.09572  0.15139
[ bonds ]
17292 17294     1  0.09572  0.15139
[ bonds ]
17295 17296     1  0.09572  0.15139
[ bonds ]
17295 17297     1  0.09572  0.15139
[ bonds ]
17298 17299     1  0.09572  0.15139
[ bonds ]
17298 17300     1  0.09572  0.15139
[ bonds ]
17301 17302     1  0.09572  0.15139
[ bonds ]
17301 17303     1  0.09572  0.15139
[ bonds ]
17304 17305     1  0.09572  0.15139
[ bonds ]
17304 17306     1  0.09572  0.15139
[ bonds ]
17307 17308     1  0.09572  0.15139
[ bonds ]
17307 17309     1  0.09572  0.15139
[ bonds ]
17310 17311     1  0.09572  0.15139
[ bonds ]
17310 17312     1  0.09572  0.15139
[ bonds ]
17313 17314     1  0.09572  0.15139
[ bonds ]
17313 17315     1  0.09572  0.15139
[ bonds ]
17316 17317     1  0.09572  0.15139
[ bonds ]
17316 17318     1  0.09572  0.15139
[ bonds ]
17319 17320     1  0.09572  0.15139
[ bonds ]
17319 17321     1  0.09572  0.15139
[ bonds ]
17322 17323     1  0.09572  0.15139
[ bonds ]
17322 17324     1  0.09572  0.15139
[ bonds ]
17325 17326     1  0.09572  0.15139
[ bonds ]
17325 17327     1  0.09572  0.15139
[ bonds ]
17328 17329     1  0.09572  0.15139
[ bonds ]
17328 17330     1  0.09572  0.15139
[ bonds ]
17331 17332     1  0.09572  0.15139
[ bonds ]
17331 17333     1  0.09572  0.15139
[ bonds ]
17334 17335     1  0.09572  0.15139
[ bonds ]
17334 17336     1  0.09572  0.15139
[ bonds ]
17337 17338     1  0.09572  0.15139
[ bonds ]
17337 17339     1  0.09572  0.15139
[ bonds ]
17340 17341     1  0.09572  0.15139
[ bonds ]
17340 17342     1  0.09572  0.15139
[ bonds ]
17343 17344     1  0.09572  0.15139
[ bonds ]
17343 17345     1  0.09572  0.15139
[ bonds ]
17346 17347     1  0.09572  0.15139
[ bonds ]
17346 17348     1  0.09572  0.15139
[ bonds ]
17349 17350     1  0.09572  0.15139
[ bonds ]
17349 17351     1  0.09572  0.15139
[ bonds ]
17352 17353     1  0.09572  0.15139
[ bonds ]
17352 17354     1  0.09572  0.15139
[ bonds ]
17355 17356     1  0.09572  0.15139
[ bonds ]
17355 17357     1  0.09572  0.15139
[ bonds ]
17358 17359     1  0.09572  0.15139
[ bonds ]
17358 17360     1  0.09572  0.15139
[ bonds ]
17361 17362     1  0.09572  0.15139
[ bonds ]
17361 17363     1  0.09572  0.15139
[ bonds ]
17364 17365     1  0.09572  0.15139
[ bonds ]
17364 17366     1  0.09572  0.15139
[ bonds ]
17367 17368     1  0.09572  0.15139
[ bonds ]
17367 17369     1  0.09572  0.15139
[ bonds ]
17370 17371     1  0.09572  0.15139
[ bonds ]
17370 17372     1  0.09572  0.15139
[ bonds ]
17373 17374     1  0.09572  0.15139
[ bonds ]
17373 17375     1  0.09572  0.15139
[ bonds ]
17376 17377     1  0.09572  0.15139
[ bonds ]
17376 17378     1  0.09572  0.15139
[ bonds ]
17379 17380     1  0.09572  0.15139
[ bonds ]
17379 17381     1  0.09572  0.15139
[ bonds ]
17382 17383     1  0.09572  0.15139
[ bonds ]
17382 17384     1  0.09572  0.15139
[ bonds ]
17385 17386     1  0.09572  0.15139
[ bonds ]
17385 17387     1  0.09572  0.15139
[ bonds ]
17388 17389     1  0.09572  0.15139
[ bonds ]
17388 17390     1  0.09572  0.15139
[ bonds ]
17391 17392     1  0.09572  0.15139
[ bonds ]
17391 17393     1  0.09572  0.15139
[ bonds ]
17394 17395     1  0.09572  0.15139
[ bonds ]
17394 17396     1  0.09572  0.15139
[ bonds ]
17397 17398     1  0.09572  0.15139
[ bonds ]
17397 17399     1  0.09572  0.15139
[ bonds ]
17400 17401     1  0.09572  0.15139
[ bonds ]
17400 17402     1  0.09572  0.15139
[ bonds ]
17403 17404     1  0.09572  0.15139
[ bonds ]
17403 17405     1  0.09572  0.15139
[ bonds ]
17406 17407     1  0.09572  0.15139
[ bonds ]
17406 17408     1  0.09572  0.15139
[ bonds ]
17409 17410     1  0.09572  0.15139
[ bonds ]
17409 17411     1  0.09572  0.15139
[ bonds ]
17412 17413     1  0.09572  0.15139
[ bonds ]
17412 17414     1  0.09572  0.15139
[ bonds ]
17415 17416     1  0.09572  0.15139
[ bonds ]
17415 17417     1  0.09572  0.15139
[ bonds ]
17418 17419     1  0.09572  0.15139
[ bonds ]
17418 17420     1  0.09572  0.15139
[ bonds ]
17421 17422     1  0.09572  0.15139
[ bonds ]
17421 17423     1  0.09572  0.15139
[ bonds ]
17424 17425     1  0.09572  0.15139
[ bonds ]
17424 17426     1  0.09572  0.15139
[ bonds ]
17427 17428     1  0.09572  0.15139
[ bonds ]
17427 17429     1  0.09572  0.15139
[ bonds ]
17430 17431     1  0.09572  0.15139
[ bonds ]
17430 17432     1  0.09572  0.15139
[ bonds ]
17433 17434     1  0.09572  0.15139
[ bonds ]
17433 17435     1  0.09572  0.15139
[ bonds ]
17436 17437     1  0.09572  0.15139
[ bonds ]
17436 17438     1  0.09572  0.15139
[ bonds ]
17439 17440     1  0.09572  0.15139
[ bonds ]
17439 17441     1  0.09572  0.15139
[ bonds ]
17442 17443     1  0.09572  0.15139
[ bonds ]
17442 17444     1  0.09572  0.15139
[ bonds ]
17445 17446     1  0.09572  0.15139
[ bonds ]
17445 17447     1  0.09572  0.15139
[ bonds ]
17448 17449     1  0.09572  0.15139
[ bonds ]
17448 17450     1  0.09572  0.15139
[ bonds ]
17451 17452     1  0.09572  0.15139
[ bonds ]
17451 17453     1  0.09572  0.15139
[ bonds ]
17454 17455     1  0.09572  0.15139
[ bonds ]
17454 17456     1  0.09572  0.15139
[ bonds ]
17457 17458     1  0.09572  0.15139
[ bonds ]
17457 17459     1  0.09572  0.15139
[ bonds ]
17460 17461     1  0.09572  0.15139
[ bonds ]
17460 17462     1  0.09572  0.15139
[ bonds ]
17463 17464     1  0.09572  0.15139
[ bonds ]
17463 17465     1  0.09572  0.15139
[ bonds ]
17466 17467     1  0.09572  0.15139
[ bonds ]
17466 17468     1  0.09572  0.15139
[ bonds ]
17469 17470     1  0.09572  0.15139
[ bonds ]
17469 17471     1  0.09572  0.15139
[ bonds ]
17472 17473     1  0.09572  0.15139
[ bonds ]
17472 17474     1  0.09572  0.15139
[ bonds ]
17475 17476     1  0.09572  0.15139
[ bonds ]
17475 17477     1  0.09572  0.15139
[ bonds ]
17478 17479     1  0.09572  0.15139
[ bonds ]
17478 17480     1  0.09572  0.15139
[ bonds ]
17481 17482     1  0.09572  0.15139
[ bonds ]
17481 17483     1  0.09572  0.15139
[ bonds ]
17484 17485     1  0.09572  0.15139
[ bonds ]
17484 17486     1  0.09572  0.15139
[ bonds ]
17487 17488     1  0.09572  0.15139
[ bonds ]
17487 17489     1  0.09572  0.15139
[ bonds ]
17490 17491     1  0.09572  0.15139
[ bonds ]
17490 17492     1  0.09572  0.15139
[ bonds ]
17493 17494     1  0.09572  0.15139
[ bonds ]
17493 17495     1  0.09572  0.15139
[ bonds ]
17496 17497     1  0.09572  0.15139
[ bonds ]
17496 17498     1  0.09572  0.15139
[ bonds ]
17499 17500     1  0.09572  0.15139
[ bonds ]
17499 17501     1  0.09572  0.15139
[ bonds ]
17502 17503     1  0.09572  0.15139
[ bonds ]
17502 17504     1  0.09572  0.15139
[ bonds ]
17505 17506     1  0.09572  0.15139
[ bonds ]
17505 17507     1  0.09572  0.15139
[ bonds ]
17508 17509     1  0.09572  0.15139
[ bonds ]
17508 17510     1  0.09572  0.15139
[ bonds ]
17511 17512     1  0.09572  0.15139
[ bonds ]
17511 17513     1  0.09572  0.15139
[ bonds ]
17514 17515     1  0.09572  0.15139
[ bonds ]
17514 17516     1  0.09572  0.15139
[ bonds ]
17517 17518     1  0.09572  0.15139
[ bonds ]
17517 17519     1  0.09572  0.15139
[ bonds ]
17520 17521     1  0.09572  0.15139
[ bonds ]
17520 17522     1  0.09572  0.15139
[ bonds ]
17523 17524     1  0.09572  0.15139
[ bonds ]
17523 17525     1  0.09572  0.15139
[ bonds ]
17526 17527     1  0.09572  0.15139
[ bonds ]
17526 17528     1  0.09572  0.15139
[ bonds ]
17529 17530     1  0.09572  0.15139
[ bonds ]
17529 17531     1  0.09572  0.15139
[ bonds ]
17532 17533     1  0.09572  0.15139
[ bonds ]
17532 17534     1  0.09572  0.15139
[ bonds ]
17535 17536     1  0.09572  0.15139
[ bonds ]
17535 17537     1  0.09572  0.15139
[ bonds ]
17538 17539     1  0.09572  0.15139
[ bonds ]
17538 17540     1  0.09572  0.15139
[ bonds ]
17541 17542     1  0.09572  0.15139
[ bonds ]
17541 17543     1  0.09572  0.15139
[ bonds ]
17544 17545     1  0.09572  0.15139
[ bonds ]
17544 17546     1  0.09572  0.15139
[ bonds ]
17547 17548     1  0.09572  0.15139
[ bonds ]
17547 17549     1  0.09572  0.15139
[ bonds ]
17550 17551     1  0.09572  0.15139
[ bonds ]
17550 17552     1  0.09572  0.15139
[ bonds ]
17553 17554     1  0.09572  0.15139
[ bonds ]
17553 17555     1  0.09572  0.15139
[ bonds ]
17556 17557     1  0.09572  0.15139
[ bonds ]
17556 17558     1  0.09572  0.15139
[ bonds ]
17559 17560     1  0.09572  0.15139
[ bonds ]
17559 17561     1  0.09572  0.15139
[ bonds ]
17562 17563     1  0.09572  0.15139
[ bonds ]
17562 17564     1  0.09572  0.15139
[ bonds ]
17565 17566     1  0.09572  0.15139
[ bonds ]
17565 17567     1  0.09572  0.15139
[ bonds ]
17568 17569     1  0.09572  0.15139
[ bonds ]
17568 17570     1  0.09572  0.15139
[ bonds ]
17571 17572     1  0.09572  0.15139
[ bonds ]
17571 17573     1  0.09572  0.15139
[ bonds ]
17574 17575     1  0.09572  0.15139
[ bonds ]
17574 17576     1  0.09572  0.15139
[ bonds ]
17577 17578     1  0.09572  0.15139
[ bonds ]
17577 17579     1  0.09572  0.15139
[ bonds ]
17580 17581     1  0.09572  0.15139
[ bonds ]
17580 17582     1  0.09572  0.15139
[ bonds ]
17583 17584     1  0.09572  0.15139
[ bonds ]
17583 17585     1  0.09572  0.15139
[ bonds ]
17586 17587     1  0.09572  0.15139
[ bonds ]
17586 17588     1  0.09572  0.15139
[ bonds ]
17589 17590     1  0.09572  0.15139
[ bonds ]
17589 17591     1  0.09572  0.15139
[ bonds ]
17592 17593     1  0.09572  0.15139
[ bonds ]
17592 17594     1  0.09572  0.15139
[ bonds ]
17595 17596     1  0.09572  0.15139
[ bonds ]
17595 17597     1  0.09572  0.15139
[ bonds ]
17598 17599     1  0.09572  0.15139
[ bonds ]
17598 17600     1  0.09572  0.15139
[ bonds ]
17601 17602     1  0.09572  0.15139
[ bonds ]
17601 17603     1  0.09572  0.15139
[ bonds ]
17604 17605     1  0.09572  0.15139
[ bonds ]
17604 17606     1  0.09572  0.15139
[ bonds ]
17607 17608     1  0.09572  0.15139
[ bonds ]
17607 17609     1  0.09572  0.15139
[ bonds ]
17610 17611     1  0.09572  0.15139
[ bonds ]
17610 17612     1  0.09572  0.15139
[ bonds ]
17613 17614     1  0.09572  0.15139
[ bonds ]
17613 17615     1  0.09572  0.15139
[ bonds ]
17616 17617     1  0.09572  0.15139
[ bonds ]
17616 17618     1  0.09572  0.15139
[ bonds ]
17619 17620     1  0.09572  0.15139
[ bonds ]
17619 17621     1  0.09572  0.15139
[ bonds ]
17622 17623     1  0.09572  0.15139
[ bonds ]
17622 17624     1  0.09572  0.15139
[ bonds ]
17625 17626     1  0.09572  0.15139
[ bonds ]
17625 17627     1  0.09572  0.15139
[ bonds ]
17628 17629     1  0.09572  0.15139
[ bonds ]
17628 17630     1  0.09572  0.15139
[ bonds ]
17631 17632     1  0.09572  0.15139
[ bonds ]
17631 17633     1  0.09572  0.15139
[ bonds ]
17634 17635     1  0.09572  0.15139
[ bonds ]
17634 17636     1  0.09572  0.15139
[ bonds ]
17637 17638     1  0.09572  0.15139
[ bonds ]
17637 17639     1  0.09572  0.15139
[ bonds ]
17640 17641     1  0.09572  0.15139
[ bonds ]
17640 17642     1  0.09572  0.15139
[ bonds ]
17643 17644     1  0.09572  0.15139
[ bonds ]
17643 17645     1  0.09572  0.15139
[ bonds ]
17646 17647     1  0.09572  0.15139
[ bonds ]
17646 17648     1  0.09572  0.15139
[ bonds ]
17649 17650     1  0.09572  0.15139
[ bonds ]
17649 17651     1  0.09572  0.15139
[ bonds ]
17652 17653     1  0.09572  0.15139
[ bonds ]
17652 17654     1  0.09572  0.15139
[ bonds ]
17655 17656     1  0.09572  0.15139
[ bonds ]
17655 17657     1  0.09572  0.15139
[ bonds ]
17658 17659     1  0.09572  0.15139
[ bonds ]
17658 17660     1  0.09572  0.15139
[ bonds ]
17661 17662     1  0.09572  0.15139
[ bonds ]
17661 17663     1  0.09572  0.15139
[ bonds ]
17664 17665     1  0.09572  0.15139
[ bonds ]
17664 17666     1  0.09572  0.15139
[ bonds ]
17667 17668     1  0.09572  0.15139
[ bonds ]
17667 17669     1  0.09572  0.15139
[ bonds ]
17670 17671     1  0.09572  0.15139
[ bonds ]
17670 17672     1  0.09572  0.15139
[ bonds ]
17673 17674     1  0.09572  0.15139
[ bonds ]
17673 17675     1  0.09572  0.15139
[ bonds ]
17676 17677     1  0.09572  0.15139
[ bonds ]
17676 17678     1  0.09572  0.15139
[ bonds ]
17679 17680     1  0.09572  0.15139
[ bonds ]
17679 17681     1  0.09572  0.15139
[ bonds ]
17682 17683     1  0.09572  0.15139
[ bonds ]
17682 17684     1  0.09572  0.15139
[ bonds ]
17685 17686     1  0.09572  0.15139
[ bonds ]
17685 17687     1  0.09572  0.15139
[ bonds ]
17688 17689     1  0.09572  0.15139
[ bonds ]
17688 17690     1  0.09572  0.15139
[ bonds ]
17691 17692     1  0.09572  0.15139
[ bonds ]
17691 17693     1  0.09572  0.15139
[ bonds ]
17694 17695     1  0.09572  0.15139
[ bonds ]
17694 17696     1  0.09572  0.15139
[ bonds ]
17697 17698     1  0.09572  0.15139
[ bonds ]
17697 17699     1  0.09572  0.15139
[ bonds ]
17700 17701     1  0.09572  0.15139
[ bonds ]
17700 17702     1  0.09572  0.15139
[ bonds ]
17703 17704     1  0.09572  0.15139
[ bonds ]
17703 17705     1  0.09572  0.15139
[ bonds ]
17706 17707     1  0.09572  0.15139
[ bonds ]
17706 17708     1  0.09572  0.15139
[ bonds ]
17709 17710     1  0.09572  0.15139
[ bonds ]
17709 17711     1  0.09572  0.15139
[ bonds ]
17712 17713     1  0.09572  0.15139
[ bonds ]
17712 17714     1  0.09572  0.15139
[ bonds ]
17715 17716     1  0.09572  0.15139
[ bonds ]
17715 17717     1  0.09572  0.15139
[ bonds ]
17718 17719     1  0.09572  0.15139
[ bonds ]
17718 17720     1  0.09572  0.15139
[ bonds ]
17721 17722     1  0.09572  0.15139
[ bonds ]
17721 17723     1  0.09572  0.15139
[ bonds ]
17724 17725     1  0.09572  0.15139
[ bonds ]
17724 17726     1  0.09572  0.15139
[ bonds ]
17727 17728     1  0.09572  0.15139
[ bonds ]
17727 17729     1  0.09572  0.15139
[ bonds ]
17730 17731     1  0.09572  0.15139
[ bonds ]
17730 17732     1  0.09572  0.15139
[ bonds ]
17733 17734     1  0.09572  0.15139
[ bonds ]
17733 17735     1  0.09572  0.15139
[ bonds ]
17736 17737     1  0.09572  0.15139
[ bonds ]
17736 17738     1  0.09572  0.15139
[ bonds ]
17739 17740     1  0.09572  0.15139
[ bonds ]
17739 17741     1  0.09572  0.15139
[ bonds ]
17742 17743     1  0.09572  0.15139
[ bonds ]
17742 17744     1  0.09572  0.15139
[ bonds ]
17745 17746     1  0.09572  0.15139
[ bonds ]
17745 17747     1  0.09572  0.15139
[ bonds ]
17748 17749     1  0.09572  0.15139
[ bonds ]
17748 17750     1  0.09572  0.15139
[ bonds ]
17751 17752     1  0.09572  0.15139
[ bonds ]
17751 17753     1  0.09572  0.15139
[ bonds ]
17754 17755     1  0.09572  0.15139
[ bonds ]
17754 17756     1  0.09572  0.15139
[ bonds ]
17757 17758     1  0.09572  0.15139
[ bonds ]
17757 17759     1  0.09572  0.15139
[ bonds ]
17760 17761     1  0.09572  0.15139
[ bonds ]
17760 17762     1  0.09572  0.15139
[ bonds ]
17763 17764     1  0.09572  0.15139
[ bonds ]
17763 17765     1  0.09572  0.15139
[ bonds ]
17766 17767     1  0.09572  0.15139
[ bonds ]
17766 17768     1  0.09572  0.15139
[ bonds ]
17769 17770     1  0.09572  0.15139
[ bonds ]
17769 17771     1  0.09572  0.15139
[ bonds ]
17772 17773     1  0.09572  0.15139
[ bonds ]
17772 17774     1  0.09572  0.15139
[ bonds ]
17775 17776     1  0.09572  0.15139
[ bonds ]
17775 17777     1  0.09572  0.15139
[ bonds ]
17778 17779     1  0.09572  0.15139
[ bonds ]
17778 17780     1  0.09572  0.15139
[ bonds ]
17781 17782     1  0.09572  0.15139
[ bonds ]
17781 17783     1  0.09572  0.15139
[ bonds ]
17784 17785     1  0.09572  0.15139
[ bonds ]
17784 17786     1  0.09572  0.15139
[ bonds ]
17787 17788     1  0.09572  0.15139
[ bonds ]
17787 17789     1  0.09572  0.15139
[ bonds ]
17790 17791     1  0.09572  0.15139
[ bonds ]
17790 17792     1  0.09572  0.15139
[ bonds ]
17793 17794     1  0.09572  0.15139
[ bonds ]
17793 17795     1  0.09572  0.15139
[ bonds ]
17796 17797     1  0.09572  0.15139
[ bonds ]
17796 17798     1  0.09572  0.15139
[ bonds ]
17799 17800     1  0.09572  0.15139
[ bonds ]
17799 17801     1  0.09572  0.15139
[ bonds ]
17802 17803     1  0.09572  0.15139
[ bonds ]
17802 17804     1  0.09572  0.15139
[ bonds ]
17805 17806     1  0.09572  0.15139
[ bonds ]
17805 17807     1  0.09572  0.15139
[ bonds ]
17808 17809     1  0.09572  0.15139
[ bonds ]
17808 17810     1  0.09572  0.15139
[ bonds ]
17811 17812     1  0.09572  0.15139
[ bonds ]
17811 17813     1  0.09572  0.15139
[ bonds ]
17814 17815     1  0.09572  0.15139
[ bonds ]
17814 17816     1  0.09572  0.15139
[ bonds ]
17817 17818     1  0.09572  0.15139
[ bonds ]
17817 17819     1  0.09572  0.15139
[ bonds ]
17820 17821     1  0.09572  0.15139
[ bonds ]
17820 17822     1  0.09572  0.15139
[ bonds ]
17823 17824     1  0.09572  0.15139
[ bonds ]
17823 17825     1  0.09572  0.15139
[ bonds ]
17826 17827     1  0.09572  0.15139
[ bonds ]
17826 17828     1  0.09572  0.15139
[ bonds ]
17829 17830     1  0.09572  0.15139
[ bonds ]
17829 17831     1  0.09572  0.15139
[ bonds ]
17832 17833     1  0.09572  0.15139
[ bonds ]
17832 17834     1  0.09572  0.15139
[ bonds ]
17835 17836     1  0.09572  0.15139
[ bonds ]
17835 17837     1  0.09572  0.15139
[ bonds ]
17838 17839     1  0.09572  0.15139
[ bonds ]
17838 17840     1  0.09572  0.15139
[ bonds ]
17841 17842     1  0.09572  0.15139
[ bonds ]
17841 17843     1  0.09572  0.15139
[ bonds ]
17844 17845     1  0.09572  0.15139
[ bonds ]
17844 17846     1  0.09572  0.15139
[ bonds ]
17847 17848     1  0.09572  0.15139
[ bonds ]
17847 17849     1  0.09572  0.15139
[ bonds ]
17850 17851     1  0.09572  0.15139
[ bonds ]
17850 17852     1  0.09572  0.15139
[ bonds ]
17853 17854     1  0.09572  0.15139
[ bonds ]
17853 17855     1  0.09572  0.15139
[ bonds ]
17856 17857     1  0.09572  0.15139
[ bonds ]
17856 17858     1  0.09572  0.15139
[ bonds ]
17859 17860     1  0.09572  0.15139
[ bonds ]
17859 17861     1  0.09572  0.15139
[ bonds ]
17862 17863     1  0.09572  0.15139
[ bonds ]
17862 17864     1  0.09572  0.15139
[ bonds ]
17865 17866     1  0.09572  0.15139
[ bonds ]
17865 17867     1  0.09572  0.15139
[ bonds ]
17868 17869     1  0.09572  0.15139
[ bonds ]
17868 17870     1  0.09572  0.15139
[ bonds ]
17871 17872     1  0.09572  0.15139
[ bonds ]
17871 17873     1  0.09572  0.15139
[ bonds ]
17874 17875     1  0.09572  0.15139
[ bonds ]
17874 17876     1  0.09572  0.15139
[ bonds ]
17877 17878     1  0.09572  0.15139
[ bonds ]
17877 17879     1  0.09572  0.15139
[ bonds ]
17880 17881     1  0.09572  0.15139
[ bonds ]
17880 17882     1  0.09572  0.15139
[ bonds ]
17883 17884     1  0.09572  0.15139
[ bonds ]
17883 17885     1  0.09572  0.15139
[ bonds ]
17886 17887     1  0.09572  0.15139
[ bonds ]
17886 17888     1  0.09572  0.15139
[ bonds ]
17889 17890     1  0.09572  0.15139
[ bonds ]
17889 17891     1  0.09572  0.15139
[ bonds ]
17892 17893     1  0.09572  0.15139
[ bonds ]
17892 17894     1  0.09572  0.15139
[ bonds ]
17895 17896     1  0.09572  0.15139
[ bonds ]
17895 17897     1  0.09572  0.15139
[ bonds ]
17898 17899     1  0.09572  0.15139
[ bonds ]
17898 17900     1  0.09572  0.15139
[ bonds ]
17901 17902     1  0.09572  0.15139
[ bonds ]
17901 17903     1  0.09572  0.15139
[ bonds ]
17904 17905     1  0.09572  0.15139
[ bonds ]
17904 17906     1  0.09572  0.15139
[ bonds ]
17907 17908     1  0.09572  0.15139
[ bonds ]
17907 17909     1  0.09572  0.15139
[ bonds ]
17910 17911     1  0.09572  0.15139
[ bonds ]
17910 17912     1  0.09572  0.15139
[ bonds ]
17913 17914     1  0.09572  0.15139
[ bonds ]
17913 17915     1  0.09572  0.15139
[ bonds ]
17916 17917     1  0.09572  0.15139
[ bonds ]
17916 17918     1  0.09572  0.15139
[ bonds ]
17919 17920     1  0.09572  0.15139
[ bonds ]
17919 17921     1  0.09572  0.15139
[ bonds ]
17922 17923     1  0.09572  0.15139
[ bonds ]
17922 17924     1  0.09572  0.15139
[ bonds ]
17925 17926     1  0.09572  0.15139
[ bonds ]
17925 17927     1  0.09572  0.15139
[ bonds ]
17928 17929     1  0.09572  0.15139
[ bonds ]
17928 17930     1  0.09572  0.15139
[ bonds ]
17931 17932     1  0.09572  0.15139
[ bonds ]
17931 17933     1  0.09572  0.15139
[ bonds ]
17934 17935     1  0.09572  0.15139
[ bonds ]
17934 17936     1  0.09572  0.15139
[ bonds ]
17937 17938     1  0.09572  0.15139
[ bonds ]
17937 17939     1  0.09572  0.15139
[ bonds ]
17940 17941     1  0.09572  0.15139
[ bonds ]
17940 17942     1  0.09572  0.15139
[ bonds ]
17943 17944     1  0.09572  0.15139
[ bonds ]
17943 17945     1  0.09572  0.15139
[ bonds ]
17946 17947     1  0.09572  0.15139
[ bonds ]
17946 17948     1  0.09572  0.15139
[ bonds ]
17949 17950     1  0.09572  0.15139
[ bonds ]
17949 17951     1  0.09572  0.15139
[ bonds ]
17952 17953     1  0.09572  0.15139
[ bonds ]
17952 17954     1  0.09572  0.15139
[ bonds ]
17955 17956     1  0.09572  0.15139
[ bonds ]
17955 17957     1  0.09572  0.15139
[ bonds ]
17958 17959     1  0.09572  0.15139
[ bonds ]
17958 17960     1  0.09572  0.15139
[ bonds ]
17961 17962     1  0.09572  0.15139
[ bonds ]
17961 17963     1  0.09572  0.15139
[ bonds ]
17964 17965     1  0.09572  0.15139
[ bonds ]
17964 17966     1  0.09572  0.15139
[ bonds ]
17967 17968     1  0.09572  0.15139
[ bonds ]
17967 17969     1  0.09572  0.15139
[ bonds ]
17970 17971     1  0.09572  0.15139
[ bonds ]
17970 17972     1  0.09572  0.15139
[ bonds ]
17973 17974     1  0.09572  0.15139
[ bonds ]
17973 17975     1  0.09572  0.15139
[ bonds ]
17976 17977     1  0.09572  0.15139
[ bonds ]
17976 17978     1  0.09572  0.15139
[ bonds ]
17979 17980     1  0.09572  0.15139
[ bonds ]
17979 17981     1  0.09572  0.15139
[ bonds ]
17982 17983     1  0.09572  0.15139
[ bonds ]
17982 17984     1  0.09572  0.15139
[ bonds ]
17985 17986     1  0.09572  0.15139
[ bonds ]
17985 17987     1  0.09572  0.15139
[ bonds ]
17988 17989     1  0.09572  0.15139
[ bonds ]
17988 17990     1  0.09572  0.15139
[ bonds ]
17991 17992     1  0.09572  0.15139
[ bonds ]
17991 17993     1  0.09572  0.15139
[ bonds ]
17994 17995     1  0.09572  0.15139
[ bonds ]
17994 17996     1  0.09572  0.15139
[ bonds ]
17997 17998     1  0.09572  0.15139
[ bonds ]
17997 17999     1  0.09572  0.15139
[ bonds ]
18000 18001     1  0.09572  0.15139
[ bonds ]
18000 18002     1  0.09572  0.15139
[ bonds ]
18003 18004     1  0.09572  0.15139
[ bonds ]
18003 18005     1  0.09572  0.15139
[ bonds ]
18006 18007     1  0.09572  0.15139
[ bonds ]
18006 18008     1  0.09572  0.15139
[ bonds ]
18009 18010     1  0.09572  0.15139
[ bonds ]
18009 18011     1  0.09572  0.15139
[ bonds ]
18012 18013     1  0.09572  0.15139
[ bonds ]
18012 18014     1  0.09572  0.15139
[ bonds ]
18015 18016     1  0.09572  0.15139
[ bonds ]
18015 18017     1  0.09572  0.15139
[ bonds ]
18018 18019     1  0.09572  0.15139
[ bonds ]
18018 18020     1  0.09572  0.15139
[ bonds ]
18021 18022     1  0.09572  0.15139
[ bonds ]
18021 18023     1  0.09572  0.15139
[ bonds ]
18024 18025     1  0.09572  0.15139
[ bonds ]
18024 18026     1  0.09572  0.15139
[ bonds ]
18027 18028     1  0.09572  0.15139
[ bonds ]
18027 18029     1  0.09572  0.15139
[ bonds ]
18030 18031     1  0.09572  0.15139
[ bonds ]
18030 18032     1  0.09572  0.15139
[ bonds ]
18033 18034     1  0.09572  0.15139
[ bonds ]
18033 18035     1  0.09572  0.15139
[ bonds ]
18036 18037     1  0.09572  0.15139
[ bonds ]
18036 18038     1  0.09572  0.15139
[ bonds ]
18039 18040     1  0.09572  0.15139
[ bonds ]
18039 18041     1  0.09572  0.15139
[ bonds ]
18042 18043     1  0.09572  0.15139
[ bonds ]
18042 18044     1  0.09572  0.15139
[ bonds ]
18045 18046     1  0.09572  0.15139
[ bonds ]
18045 18047     1  0.09572  0.15139
[ bonds ]
18048 18049     1  0.09572  0.15139
[ bonds ]
18048 18050     1  0.09572  0.15139
[ bonds ]
18051 18052     1  0.09572  0.15139
[ bonds ]
18051 18053     1  0.09572  0.15139
[ bonds ]
18054 18055     1  0.09572  0.15139
[ bonds ]
18054 18056     1  0.09572  0.15139
[ bonds ]
18057 18058     1  0.09572  0.15139
[ bonds ]
18057 18059     1  0.09572  0.15139
[ bonds ]
18060 18061     1  0.09572  0.15139
[ bonds ]
18060 18062     1  0.09572  0.15139
[ bonds ]
18063 18064     1  0.09572  0.15139
[ bonds ]
18063 18065     1  0.09572  0.15139
[ bonds ]
18066 18067     1  0.09572  0.15139
[ bonds ]
18066 18068     1  0.09572  0.15139
[ bonds ]
18069 18070     1  0.09572  0.15139
[ bonds ]
18069 18071     1  0.09572  0.15139
[ bonds ]
18072 18073     1  0.09572  0.15139
[ bonds ]
18072 18074     1  0.09572  0.15139
[ bonds ]
18075 18076     1  0.09572  0.15139
[ bonds ]
18075 18077     1  0.09572  0.15139
[ bonds ]
18078 18079     1  0.09572  0.15139
[ bonds ]
18078 18080     1  0.09572  0.15139
[ bonds ]
18081 18082     1  0.09572  0.15139
[ bonds ]
18081 18083     1  0.09572  0.15139
[ bonds ]
18084 18085     1  0.09572  0.15139
[ bonds ]
18084 18086     1  0.09572  0.15139
[ bonds ]
18087 18088     1  0.09572  0.15139
[ bonds ]
18087 18089     1  0.09572  0.15139
[ bonds ]
18090 18091     1  0.09572  0.15139
[ bonds ]
18090 18092     1  0.09572  0.15139
[ bonds ]
18093 18094     1  0.09572  0.15139
[ bonds ]
18093 18095     1  0.09572  0.15139
[ bonds ]
18096 18097     1  0.09572  0.15139
[ bonds ]
18096 18098     1  0.09572  0.15139
[ bonds ]
18099 18100     1  0.09572  0.15139
[ bonds ]
18099 18101     1  0.09572  0.15139
[ bonds ]
18102 18103     1  0.09572  0.15139
[ bonds ]
18102 18104     1  0.09572  0.15139
[ bonds ]
18105 18106     1  0.09572  0.15139
[ bonds ]
18105 18107     1  0.09572  0.15139
[ bonds ]
18108 18109     1  0.09572  0.15139
[ bonds ]
18108 18110     1  0.09572  0.15139
[ bonds ]
18111 18112     1  0.09572  0.15139
[ bonds ]
18111 18113     1  0.09572  0.15139
[ bonds ]
18114 18115     1  0.09572  0.15139
[ bonds ]
18114 18116     1  0.09572  0.15139
[ bonds ]
18117 18118     1  0.09572  0.15139
[ bonds ]
18117 18119     1  0.09572  0.15139
[ bonds ]
18120 18121     1  0.09572  0.15139
[ bonds ]
18120 18122     1  0.09572  0.15139
[ bonds ]
18123 18124     1  0.09572  0.15139
[ bonds ]
18123 18125     1  0.09572  0.15139
[ bonds ]
18126 18127     1  0.09572  0.15139
[ bonds ]
18126 18128     1  0.09572  0.15139
[ bonds ]
18129 18130     1  0.09572  0.15139
[ bonds ]
18129 18131     1  0.09572  0.15139
[ bonds ]
18132 18133     1  0.09572  0.15139
[ bonds ]
18132 18134     1  0.09572  0.15139
[ bonds ]
18135 18136     1  0.09572  0.15139
[ bonds ]
18135 18137     1  0.09572  0.15139
[ bonds ]
18138 18139     1  0.09572  0.15139
[ bonds ]
18138 18140     1  0.09572  0.15139
[ bonds ]
18141 18142     1  0.09572  0.15139
[ bonds ]
18141 18143     1  0.09572  0.15139
[ bonds ]
18144 18145     1  0.09572  0.15139
[ bonds ]
18144 18146     1  0.09572  0.15139
[ bonds ]
18147 18148     1  0.09572  0.15139
[ bonds ]
18147 18149     1  0.09572  0.15139
[ bonds ]
18150 18151     1  0.09572  0.15139
[ bonds ]
18150 18152     1  0.09572  0.15139
[ bonds ]
18153 18154     1  0.09572  0.15139
[ bonds ]
18153 18155     1  0.09572  0.15139
[ bonds ]
18156 18157     1  0.09572  0.15139
[ bonds ]
18156 18158     1  0.09572  0.15139
[ bonds ]
18159 18160     1  0.09572  0.15139
[ bonds ]
18159 18161     1  0.09572  0.15139
[ bonds ]
18162 18163     1  0.09572  0.15139
[ bonds ]
18162 18164     1  0.09572  0.15139
[ bonds ]
18165 18166     1  0.09572  0.15139
[ bonds ]
18165 18167     1  0.09572  0.15139
[ bonds ]
18168 18169     1  0.09572  0.15139
[ bonds ]
18168 18170     1  0.09572  0.15139
[ bonds ]
18171 18172     1  0.09572  0.15139
[ bonds ]
18171 18173     1  0.09572  0.15139
[ bonds ]
18174 18175     1  0.09572  0.15139
[ bonds ]
18174 18176     1  0.09572  0.15139
[ bonds ]
18177 18178     1  0.09572  0.15139
[ bonds ]
18177 18179     1  0.09572  0.15139
[ bonds ]
18180 18181     1  0.09572  0.15139
[ bonds ]
18180 18182     1  0.09572  0.15139
[ bonds ]
18183 18184     1  0.09572  0.15139
[ bonds ]
18183 18185     1  0.09572  0.15139
[ bonds ]
18186 18187     1  0.09572  0.15139
[ bonds ]
18186 18188     1  0.09572  0.15139
[ bonds ]
18189 18190     1  0.09572  0.15139
[ bonds ]
18189 18191     1  0.09572  0.15139
[ bonds ]
18192 18193     1  0.09572  0.15139
[ bonds ]
18192 18194     1  0.09572  0.15139
[ bonds ]
18195 18196     1  0.09572  0.15139
[ bonds ]
18195 18197     1  0.09572  0.15139
[ bonds ]
18198 18199     1  0.09572  0.15139
[ bonds ]
18198 18200     1  0.09572  0.15139
[ bonds ]
18201 18202     1  0.09572  0.15139
[ bonds ]
18201 18203     1  0.09572  0.15139
[ bonds ]
18204 18205     1  0.09572  0.15139
[ bonds ]
18204 18206     1  0.09572  0.15139
[ bonds ]
18207 18208     1  0.09572  0.15139
[ bonds ]
18207 18209     1  0.09572  0.15139
[ bonds ]
18210 18211     1  0.09572  0.15139
[ bonds ]
18210 18212     1  0.09572  0.15139
[ bonds ]
18213 18214     1  0.09572  0.15139
[ bonds ]
18213 18215     1  0.09572  0.15139
[ bonds ]
18216 18217     1  0.09572  0.15139
[ bonds ]
18216 18218     1  0.09572  0.15139
[ bonds ]
18219 18220     1  0.09572  0.15139
[ bonds ]
18219 18221     1  0.09572  0.15139
[ bonds ]
18222 18223     1  0.09572  0.15139
[ bonds ]
18222 18224     1  0.09572  0.15139
[ bonds ]
18225 18226     1  0.09572  0.15139
[ bonds ]
18225 18227     1  0.09572  0.15139
[ bonds ]
18228 18229     1  0.09572  0.15139
[ bonds ]
18228 18230     1  0.09572  0.15139
[ bonds ]
18231 18232     1  0.09572  0.15139
[ bonds ]
18231 18233     1  0.09572  0.15139
[ bonds ]
18234 18235     1  0.09572  0.15139
[ bonds ]
18234 18236     1  0.09572  0.15139
[ bonds ]
18237 18238     1  0.09572  0.15139
[ bonds ]
18237 18239     1  0.09572  0.15139
[ bonds ]
18240 18241     1  0.09572  0.15139
[ bonds ]
18240 18242     1  0.09572  0.15139
[ bonds ]
18243 18244     1  0.09572  0.15139
[ bonds ]
18243 18245     1  0.09572  0.15139
[ bonds ]
18246 18247     1  0.09572  0.15139
[ bonds ]
18246 18248     1  0.09572  0.15139
[ bonds ]
18249 18250     1  0.09572  0.15139
[ bonds ]
18249 18251     1  0.09572  0.15139
[ bonds ]
18252 18253     1  0.09572  0.15139
[ bonds ]
18252 18254     1  0.09572  0.15139
[ bonds ]
18255 18256     1  0.09572  0.15139
[ bonds ]
18255 18257     1  0.09572  0.15139
[ bonds ]
18258 18259     1  0.09572  0.15139
[ bonds ]
18258 18260     1  0.09572  0.15139
[ bonds ]
18261 18262     1  0.09572  0.15139
[ bonds ]
18261 18263     1  0.09572  0.15139
[ bonds ]
18264 18265     1  0.09572  0.15139
[ bonds ]
18264 18266     1  0.09572  0.15139
[ bonds ]
18267 18268     1  0.09572  0.15139
[ bonds ]
18267 18269     1  0.09572  0.15139
[ bonds ]
18270 18271     1  0.09572  0.15139
[ bonds ]
18270 18272     1  0.09572  0.15139
[ bonds ]
18273 18274     1  0.09572  0.15139
[ bonds ]
18273 18275     1  0.09572  0.15139
[ bonds ]
18276 18277     1  0.09572  0.15139
[ bonds ]
18276 18278     1  0.09572  0.15139
[ bonds ]
18279 18280     1  0.09572  0.15139
[ bonds ]
18279 18281     1  0.09572  0.15139
[ bonds ]
18282 18283     1  0.09572  0.15139
[ bonds ]
18282 18284     1  0.09572  0.15139
[ bonds ]
18285 18286     1  0.09572  0.15139
[ bonds ]
18285 18287     1  0.09572  0.15139
[ bonds ]
18288 18289     1  0.09572  0.15139
[ bonds ]
18288 18290     1  0.09572  0.15139
[ bonds ]
18291 18292     1  0.09572  0.15139
[ bonds ]
18291 18293     1  0.09572  0.15139
[ bonds ]
18294 18295     1  0.09572  0.15139
[ bonds ]
18294 18296     1  0.09572  0.15139
[ bonds ]
18297 18298     1  0.09572  0.15139
[ bonds ]
18297 18299     1  0.09572  0.15139
[ bonds ]
18300 18301     1  0.09572  0.15139
[ bonds ]
18300 18302     1  0.09572  0.15139
[ bonds ]
18303 18304     1  0.09572  0.15139
[ bonds ]
18303 18305     1  0.09572  0.15139
[ bonds ]
18306 18307     1  0.09572  0.15139
[ bonds ]
18306 18308     1  0.09572  0.15139
[ bonds ]
18309 18310     1  0.09572  0.15139
[ bonds ]
18309 18311     1  0.09572  0.15139
[ bonds ]
18312 18313     1  0.09572  0.15139
[ bonds ]
18312 18314     1  0.09572  0.15139
[ bonds ]
18315 18316     1  0.09572  0.15139
[ bonds ]
18315 18317     1  0.09572  0.15139
[ bonds ]
18318 18319     1  0.09572  0.15139
[ bonds ]
18318 18320     1  0.09572  0.15139
[ bonds ]
18321 18322     1  0.09572  0.15139
[ bonds ]
18321 18323     1  0.09572  0.15139
[ bonds ]
18324 18325     1  0.09572  0.15139
[ bonds ]
18324 18326     1  0.09572  0.15139
[ bonds ]
18327 18328     1  0.09572  0.15139
[ bonds ]
18327 18329     1  0.09572  0.15139
[ bonds ]
18330 18331     1  0.09572  0.15139
[ bonds ]
18330 18332     1  0.09572  0.15139
[ bonds ]
18333 18334     1  0.09572  0.15139
[ bonds ]
18333 18335     1  0.09572  0.15139
[ bonds ]
18336 18337     1  0.09572  0.15139
[ bonds ]
18336 18338     1  0.09572  0.15139
[ bonds ]
18339 18340     1  0.09572  0.15139
[ bonds ]
18339 18341     1  0.09572  0.15139
[ bonds ]
18342 18343     1  0.09572  0.15139
[ bonds ]
18342 18344     1  0.09572  0.15139
[ bonds ]
18345 18346     1  0.09572  0.15139
[ bonds ]
18345 18347     1  0.09572  0.15139
[ bonds ]
18348 18349     1  0.09572  0.15139
[ bonds ]
18348 18350     1  0.09572  0.15139
[ bonds ]
18351 18352     1  0.09572  0.15139
[ bonds ]
18351 18353     1  0.09572  0.15139
[ bonds ]
18354 18355     1  0.09572  0.15139
[ bonds ]
18354 18356     1  0.09572  0.15139
[ bonds ]
18357 18358     1  0.09572  0.15139
[ bonds ]
18357 18359     1  0.09572  0.15139
[ bonds ]
18360 18361     1  0.09572  0.15139
[ bonds ]
18360 18362     1  0.09572  0.15139
[ bonds ]
18363 18364     1  0.09572  0.15139
[ bonds ]
18363 18365     1  0.09572  0.15139
[ bonds ]
18366 18367     1  0.09572  0.15139
[ bonds ]
18366 18368     1  0.09572  0.15139
[ bonds ]
18369 18370     1  0.09572  0.15139
[ bonds ]
18369 18371     1  0.09572  0.15139
[ bonds ]
18372 18373     1  0.09572  0.15139
[ bonds ]
18372 18374     1  0.09572  0.15139
[ bonds ]
18375 18376     1  0.09572  0.15139
[ bonds ]
18375 18377     1  0.09572  0.15139
[ bonds ]
18378 18379     1  0.09572  0.15139
[ bonds ]
18378 18380     1  0.09572  0.15139
[ bonds ]
18381 18382     1  0.09572  0.15139
[ bonds ]
18381 18383     1  0.09572  0.15139
[ bonds ]
18384 18385     1  0.09572  0.15139
[ bonds ]
18384 18386     1  0.09572  0.15139
[ bonds ]
18387 18388     1  0.09572  0.15139
[ bonds ]
18387 18389     1  0.09572  0.15139
[ bonds ]
18390 18391     1  0.09572  0.15139
[ bonds ]
18390 18392     1  0.09572  0.15139
[ bonds ]
18393 18394     1  0.09572  0.15139
[ bonds ]
18393 18395     1  0.09572  0.15139
[ bonds ]
18396 18397     1  0.09572  0.15139
[ bonds ]
18396 18398     1  0.09572  0.15139
[ bonds ]
18399 18400     1  0.09572  0.15139
[ bonds ]
18399 18401     1  0.09572  0.15139
[ bonds ]
18402 18403     1  0.09572  0.15139
[ bonds ]
18402 18404     1  0.09572  0.15139
[ bonds ]
18405 18406     1  0.09572  0.15139
[ bonds ]
18405 18407     1  0.09572  0.15139
[ bonds ]
18408 18409     1  0.09572  0.15139
[ bonds ]
18408 18410     1  0.09572  0.15139
[ bonds ]
18411 18412     1  0.09572  0.15139
[ bonds ]
18411 18413     1  0.09572  0.15139
[ bonds ]
18414 18415     1  0.09572  0.15139
[ bonds ]
18414 18416     1  0.09572  0.15139
[ bonds ]
18417 18418     1  0.09572  0.15139
[ bonds ]
18417 18419     1  0.09572  0.15139
[ bonds ]
18420 18421     1  0.09572  0.15139
[ bonds ]
18420 18422     1  0.09572  0.15139
[ bonds ]
18423 18424     1  0.09572  0.15139
[ bonds ]
18423 18425     1  0.09572  0.15139
[ bonds ]
18426 18427     1  0.09572  0.15139
[ bonds ]
18426 18428     1  0.09572  0.15139
[ bonds ]
18429 18430     1  0.09572  0.15139
[ bonds ]
18429 18431     1  0.09572  0.15139
[ bonds ]
18432 18433     1  0.09572  0.15139
[ bonds ]
18432 18434     1  0.09572  0.15139
[ bonds ]
18435 18436     1  0.09572  0.15139
[ bonds ]
18435 18437     1  0.09572  0.15139
[ bonds ]
18438 18439     1  0.09572  0.15139
[ bonds ]
18438 18440     1  0.09572  0.15139
[ bonds ]
18441 18442     1  0.09572  0.15139
[ bonds ]
18441 18443     1  0.09572  0.15139
[ bonds ]
18444 18445     1  0.09572  0.15139
[ bonds ]
18444 18446     1  0.09572  0.15139
[ bonds ]
18447 18448     1  0.09572  0.15139
[ bonds ]
18447 18449     1  0.09572  0.15139
[ bonds ]
18450 18451     1  0.09572  0.15139
[ bonds ]
18450 18452     1  0.09572  0.15139
[ bonds ]
18453 18454     1  0.09572  0.15139
[ bonds ]
18453 18455     1  0.09572  0.15139
[ bonds ]
18456 18457     1  0.09572  0.15139
[ bonds ]
18456 18458     1  0.09572  0.15139
[ bonds ]
18459 18460     1  0.09572  0.15139
[ bonds ]
18459 18461     1  0.09572  0.15139
[ bonds ]
18462 18463     1  0.09572  0.15139
[ bonds ]
18462 18464     1  0.09572  0.15139
[ bonds ]
18465 18466     1  0.09572  0.15139
[ bonds ]
18465 18467     1  0.09572  0.15139
[ bonds ]
18468 18469     1  0.09572  0.15139
[ bonds ]
18468 18470     1  0.09572  0.15139
[ bonds ]
18471 18472     1  0.09572  0.15139
[ bonds ]
18471 18473     1  0.09572  0.15139
[ bonds ]
18474 18475     1  0.09572  0.15139
[ bonds ]
18474 18476     1  0.09572  0.15139
[ bonds ]
18477 18478     1  0.09572  0.15139
[ bonds ]
18477 18479     1  0.09572  0.15139
[ bonds ]
18480 18481     1  0.09572  0.15139
[ bonds ]
18480 18482     1  0.09572  0.15139
[ bonds ]
18483 18484     1  0.09572  0.15139
[ bonds ]
18483 18485     1  0.09572  0.15139
[ bonds ]
18486 18487     1  0.09572  0.15139
[ bonds ]
18486 18488     1  0.09572  0.15139
[ bonds ]
18489 18490     1  0.09572  0.15139
[ bonds ]
18489 18491     1  0.09572  0.15139
[ bonds ]
18492 18493     1  0.09572  0.15139
[ bonds ]
18492 18494     1  0.09572  0.15139
[ bonds ]
18495 18496     1  0.09572  0.15139
[ bonds ]
18495 18497     1  0.09572  0.15139
[ bonds ]
18498 18499     1  0.09572  0.15139
[ bonds ]
18498 18500     1  0.09572  0.15139
[ bonds ]
18501 18502     1  0.09572  0.15139
[ bonds ]
18501 18503     1  0.09572  0.15139
[ bonds ]
18504 18505     1  0.09572  0.15139
[ bonds ]
18504 18506     1  0.09572  0.15139
[ bonds ]
18507 18508     1  0.09572  0.15139
[ bonds ]
18507 18509     1  0.09572  0.15139
[ bonds ]
18510 18511     1  0.09572  0.15139
[ bonds ]
18510 18512     1  0.09572  0.15139
[ bonds ]
18513 18514     1  0.09572  0.15139
[ bonds ]
18513 18515     1  0.09572  0.15139
[ bonds ]
18516 18517     1  0.09572  0.15139
[ bonds ]
18516 18518     1  0.09572  0.15139
[ bonds ]
18519 18520     1  0.09572  0.15139
[ bonds ]
18519 18521     1  0.09572  0.15139
[ bonds ]
18522 18523     1  0.09572  0.15139
[ bonds ]
18522 18524     1  0.09572  0.15139
[ bonds ]
18525 18526     1  0.09572  0.15139
[ bonds ]
18525 18527     1  0.09572  0.15139
[ bonds ]
18528 18529     1  0.09572  0.15139
[ bonds ]
18528 18530     1  0.09572  0.15139
[ bonds ]
18531 18532     1  0.09572  0.15139
[ bonds ]
18531 18533     1  0.09572  0.15139
[ bonds ]
18534 18535     1  0.09572  0.15139
[ bonds ]
18534 18536     1  0.09572  0.15139
[ bonds ]
18537 18538     1  0.09572  0.15139
[ bonds ]
18537 18539     1  0.09572  0.15139
[ bonds ]
18540 18541     1  0.09572  0.15139
[ bonds ]
18540 18542     1  0.09572  0.15139
[ bonds ]
18543 18544     1  0.09572  0.15139
[ bonds ]
18543 18545     1  0.09572  0.15139
[ bonds ]
18546 18547     1  0.09572  0.15139
[ bonds ]
18546 18548     1  0.09572  0.15139
[ bonds ]
18549 18550     1  0.09572  0.15139
[ bonds ]
18549 18551     1  0.09572  0.15139
[ bonds ]
18552 18553     1  0.09572  0.15139
[ bonds ]
18552 18554     1  0.09572  0.15139
[ bonds ]
18555 18556     1  0.09572  0.15139
[ bonds ]
18555 18557     1  0.09572  0.15139
[ bonds ]
18558 18559     1  0.09572  0.15139
[ bonds ]
18558 18560     1  0.09572  0.15139
[ bonds ]
18561 18562     1  0.09572  0.15139
[ bonds ]
18561 18563     1  0.09572  0.15139
[ bonds ]
18564 18565     1  0.09572  0.15139
[ bonds ]
18564 18566     1  0.09572  0.15139
[ bonds ]
18567 18568     1  0.09572  0.15139
[ bonds ]
18567 18569     1  0.09572  0.15139
[ bonds ]
18570 18571     1  0.09572  0.15139
[ bonds ]
18570 18572     1  0.09572  0.15139
[ bonds ]
18573 18574     1  0.09572  0.15139
[ bonds ]
18573 18575     1  0.09572  0.15139
[ bonds ]
18576 18577     1  0.09572  0.15139
[ bonds ]
18576 18578     1  0.09572  0.15139
[ bonds ]
18579 18580     1  0.09572  0.15139
[ bonds ]
18579 18581     1  0.09572  0.15139
[ bonds ]
18582 18583     1  0.09572  0.15139
[ bonds ]
18582 18584     1  0.09572  0.15139
[ bonds ]
18585 18586     1  0.09572  0.15139
[ bonds ]
18585 18587     1  0.09572  0.15139
[ bonds ]
18588 18589     1  0.09572  0.15139
[ bonds ]
18588 18590     1  0.09572  0.15139
[ bonds ]
18591 18592     1  0.09572  0.15139
[ bonds ]
18591 18593     1  0.09572  0.15139
[ bonds ]
18594 18595     1  0.09572  0.15139
[ bonds ]
18594 18596     1  0.09572  0.15139
[ bonds ]
18597 18598     1  0.09572  0.15139
[ bonds ]
18597 18599     1  0.09572  0.15139
[ bonds ]
18600 18601     1  0.09572  0.15139
[ bonds ]
18600 18602     1  0.09572  0.15139
[ bonds ]
18603 18604     1  0.09572  0.15139
[ bonds ]
18603 18605     1  0.09572  0.15139
[ bonds ]
18606 18607     1  0.09572  0.15139
[ bonds ]
18606 18608     1  0.09572  0.15139
[ bonds ]
18609 18610     1  0.09572  0.15139
[ bonds ]
18609 18611     1  0.09572  0.15139
[ bonds ]
18612 18613     1  0.09572  0.15139
[ bonds ]
18612 18614     1  0.09572  0.15139
[ bonds ]
18615 18616     1  0.09572  0.15139
[ bonds ]
18615 18617     1  0.09572  0.15139
[ bonds ]
18618 18619     1  0.09572  0.15139
[ bonds ]
18618 18620     1  0.09572  0.15139
[ bonds ]
18621 18622     1  0.09572  0.15139
[ bonds ]
18621 18623     1  0.09572  0.15139
[ bonds ]
18624 18625     1  0.09572  0.15139
[ bonds ]
18624 18626     1  0.09572  0.15139
[ bonds ]
18627 18628     1  0.09572  0.15139
[ bonds ]
18627 18629     1  0.09572  0.15139
[ bonds ]
18630 18631     1  0.09572  0.15139
[ bonds ]
18630 18632     1  0.09572  0.15139
[ bonds ]
18633 18634     1  0.09572  0.15139
[ bonds ]
18633 18635     1  0.09572  0.15139
[ bonds ]
18636 18637     1  0.09572  0.15139
[ bonds ]
18636 18638     1  0.09572  0.15139
[ bonds ]
18639 18640     1  0.09572  0.15139
[ bonds ]
18639 18641     1  0.09572  0.15139
[ bonds ]
18642 18643     1  0.09572  0.15139
[ bonds ]
18642 18644     1  0.09572  0.15139
[ bonds ]
18645 18646     1  0.09572  0.15139
[ bonds ]
18645 18647     1  0.09572  0.15139
[ bonds ]
18648 18649     1  0.09572  0.15139
[ bonds ]
18648 18650     1  0.09572  0.15139
[ bonds ]
18651 18652     1  0.09572  0.15139
[ bonds ]
18651 18653     1  0.09572  0.15139
[ bonds ]
18654 18655     1  0.09572  0.15139
[ bonds ]
18654 18656     1  0.09572  0.15139
[ bonds ]
18657 18658     1  0.09572  0.15139
[ bonds ]
18657 18659     1  0.09572  0.15139
[ bonds ]
18660 18661     1  0.09572  0.15139
[ bonds ]
18660 18662     1  0.09572  0.15139
[ bonds ]
18663 18664     1  0.09572  0.15139
[ bonds ]
18663 18665     1  0.09572  0.15139
[ bonds ]
18666 18667     1  0.09572  0.15139
[ bonds ]
18666 18668     1  0.09572  0.15139
[ bonds ]
18669 18670     1  0.09572  0.15139
[ bonds ]
18669 18671     1  0.09572  0.15139
[ bonds ]
18672 18673     1  0.09572  0.15139
[ bonds ]
18672 18674     1  0.09572  0.15139
[ bonds ]
18675 18676     1  0.09572  0.15139
[ bonds ]
18675 18677     1  0.09572  0.15139
[ bonds ]
18678 18679     1  0.09572  0.15139
[ bonds ]
18678 18680     1  0.09572  0.15139
[ bonds ]
18681 18682     1  0.09572  0.15139
[ bonds ]
18681 18683     1  0.09572  0.15139
[ bonds ]
18684 18685     1  0.09572  0.15139
[ bonds ]
18684 18686     1  0.09572  0.15139
[ bonds ]
18687 18688     1  0.09572  0.15139
[ bonds ]
18687 18689     1  0.09572  0.15139
[ bonds ]
18690 18691     1  0.09572  0.15139
[ bonds ]
18690 18692     1  0.09572  0.15139
[ bonds ]
18693 18694     1  0.09572  0.15139
[ bonds ]
18693 18695     1  0.09572  0.15139
[ bonds ]
18696 18697     1  0.09572  0.15139
[ bonds ]
18696 18698     1  0.09572  0.15139
[ bonds ]
18699 18700     1  0.09572  0.15139
[ bonds ]
18699 18701     1  0.09572  0.15139
[ bonds ]
18702 18703     1  0.09572  0.15139
[ bonds ]
18702 18704     1  0.09572  0.15139
[ bonds ]
18705 18706     1  0.09572  0.15139
[ bonds ]
18705 18707     1  0.09572  0.15139
[ bonds ]
18708 18709     1  0.09572  0.15139
[ bonds ]
18708 18710     1  0.09572  0.15139
[ bonds ]
18711 18712     1  0.09572  0.15139
[ bonds ]
18711 18713     1  0.09572  0.15139
[ bonds ]
18714 18715     1  0.09572  0.15139
[ bonds ]
18714 18716     1  0.09572  0.15139
[ bonds ]
18717 18718     1  0.09572  0.15139
[ bonds ]
18717 18719     1  0.09572  0.15139
[ bonds ]
18720 18721     1  0.09572  0.15139
[ bonds ]
18720 18722     1  0.09572  0.15139
[ bonds ]
18723 18724     1  0.09572  0.15139
[ bonds ]
18723 18725     1  0.09572  0.15139
[ bonds ]
18726 18727     1  0.09572  0.15139
[ bonds ]
18726 18728     1  0.09572  0.15139
[ bonds ]
18729 18730     1  0.09572  0.15139
[ bonds ]
18729 18731     1  0.09572  0.15139
[ bonds ]
18732 18733     1  0.09572  0.15139
[ bonds ]
18732 18734     1  0.09572  0.15139
[ bonds ]
18735 18736     1  0.09572  0.15139
[ bonds ]
18735 18737     1  0.09572  0.15139
[ bonds ]
18738 18739     1  0.09572  0.15139
[ bonds ]
18738 18740     1  0.09572  0.15139
[ bonds ]
18741 18742     1  0.09572  0.15139
[ bonds ]
18741 18743     1  0.09572  0.15139
[ bonds ]
18744 18745     1  0.09572  0.15139
[ bonds ]
18744 18746     1  0.09572  0.15139
[ bonds ]
18747 18748     1  0.09572  0.15139
[ bonds ]
18747 18749     1  0.09572  0.15139
[ bonds ]
18750 18751     1  0.09572  0.15139
[ bonds ]
18750 18752     1  0.09572  0.15139
[ bonds ]
18753 18754     1  0.09572  0.15139
[ bonds ]
18753 18755     1  0.09572  0.15139
[ bonds ]
18756 18757     1  0.09572  0.15139
[ bonds ]
18756 18758     1  0.09572  0.15139
[ bonds ]
18759 18760     1  0.09572  0.15139
[ bonds ]
18759 18761     1  0.09572  0.15139
[ bonds ]
18762 18763     1  0.09572  0.15139
[ bonds ]
18762 18764     1  0.09572  0.15139
[ bonds ]
18765 18766     1  0.09572  0.15139
[ bonds ]
18765 18767     1  0.09572  0.15139
[ bonds ]
18768 18769     1  0.09572  0.15139
[ bonds ]
18768 18770     1  0.09572  0.15139
[ bonds ]
18771 18772     1  0.09572  0.15139
[ bonds ]
18771 18773     1  0.09572  0.15139
[ bonds ]
18774 18775     1  0.09572  0.15139
[ bonds ]
18774 18776     1  0.09572  0.15139
[ bonds ]
18777 18778     1  0.09572  0.15139
[ bonds ]
18777 18779     1  0.09572  0.15139
[ bonds ]
18780 18781     1  0.09572  0.15139
[ bonds ]
18780 18782     1  0.09572  0.15139
[ bonds ]
18783 18784     1  0.09572  0.15139
[ bonds ]
18783 18785     1  0.09572  0.15139
[ bonds ]
18786 18787     1  0.09572  0.15139
[ bonds ]
18786 18788     1  0.09572  0.15139
[ bonds ]
18789 18790     1  0.09572  0.15139
[ bonds ]
18789 18791     1  0.09572  0.15139
[ bonds ]
18792 18793     1  0.09572  0.15139
[ bonds ]
18792 18794     1  0.09572  0.15139
[ bonds ]
18795 18796     1  0.09572  0.15139
[ bonds ]
18795 18797     1  0.09572  0.15139
[ bonds ]
18798 18799     1  0.09572  0.15139
[ bonds ]
18798 18800     1  0.09572  0.15139
[ bonds ]
18801 18802     1  0.09572  0.15139
[ bonds ]
18801 18803     1  0.09572  0.15139
[ bonds ]
18804 18805     1  0.09572  0.15139
[ bonds ]
18804 18806     1  0.09572  0.15139
[ bonds ]
18807 18808     1  0.09572  0.15139
[ bonds ]
18807 18809     1  0.09572  0.15139
[ bonds ]
18810 18811     1  0.09572  0.15139
[ bonds ]
18810 18812     1  0.09572  0.15139
[ bonds ]
18813 18814     1  0.09572  0.15139
[ bonds ]
18813 18815     1  0.09572  0.15139
[ bonds ]
18816 18817     1  0.09572  0.15139
[ bonds ]
18816 18818     1  0.09572  0.15139
[ bonds ]
18819 18820     1  0.09572  0.15139
[ bonds ]
18819 18821     1  0.09572  0.15139
[ bonds ]
18822 18823     1  0.09572  0.15139
[ bonds ]
18822 18824     1  0.09572  0.15139
[ bonds ]
18825 18826     1  0.09572  0.15139
[ bonds ]
18825 18827     1  0.09572  0.15139
[ bonds ]
18828 18829     1  0.09572  0.15139
[ bonds ]
18828 18830     1  0.09572  0.15139
[ bonds ]
18831 18832     1  0.09572  0.15139
[ bonds ]
18831 18833     1  0.09572  0.15139
[ bonds ]
18834 18835     1  0.09572  0.15139
[ bonds ]
18834 18836     1  0.09572  0.15139
[ bonds ]
18837 18838     1  0.09572  0.15139
[ bonds ]
18837 18839     1  0.09572  0.15139
[ bonds ]
18840 18841     1  0.09572  0.15139
[ bonds ]
18840 18842     1  0.09572  0.15139
[ bonds ]
18843 18844     1  0.09572  0.15139
[ bonds ]
18843 18845     1  0.09572  0.15139
[ bonds ]
18846 18847     1  0.09572  0.15139
[ bonds ]
18846 18848     1  0.09572  0.15139
[ bonds ]
18849 18850     1  0.09572  0.15139
[ bonds ]
18849 18851     1  0.09572  0.15139
[ bonds ]
18852 18853     1  0.09572  0.15139
[ bonds ]
18852 18854     1  0.09572  0.15139
[ bonds ]
18855 18856     1  0.09572  0.15139
[ bonds ]
18855 18857     1  0.09572  0.15139
[ bonds ]
18858 18859     1  0.09572  0.15139
[ bonds ]
18858 18860     1  0.09572  0.15139
[ bonds ]
18861 18862     1  0.09572  0.15139
[ bonds ]
18861 18863     1  0.09572  0.15139
[ bonds ]
18864 18865     1  0.09572  0.15139
[ bonds ]
18864 18866     1  0.09572  0.15139
[ bonds ]
18867 18868     1  0.09572  0.15139
[ bonds ]
18867 18869     1  0.09572  0.15139
[ bonds ]
18870 18871     1  0.09572  0.15139
[ bonds ]
18870 18872     1  0.09572  0.15139
[ bonds ]
18873 18874     1  0.09572  0.15139
[ bonds ]
18873 18875     1  0.09572  0.15139
[ bonds ]
18876 18877     1  0.09572  0.15139
[ bonds ]
18876 18878     1  0.09572  0.15139
[ bonds ]
18879 18880     1  0.09572  0.15139
[ bonds ]
18879 18881     1  0.09572  0.15139
[ bonds ]
18882 18883     1  0.09572  0.15139
[ bonds ]
18882 18884     1  0.09572  0.15139
[ bonds ]
18885 18886     1  0.09572  0.15139
[ bonds ]
18885 18887     1  0.09572  0.15139
[ bonds ]
18888 18889     1  0.09572  0.15139
[ bonds ]
18888 18890     1  0.09572  0.15139
[ bonds ]
18891 18892     1  0.09572  0.15139
[ bonds ]
18891 18893     1  0.09572  0.15139
[ bonds ]
18894 18895     1  0.09572  0.15139
[ bonds ]
18894 18896     1  0.09572  0.15139
[ bonds ]
18897 18898     1  0.09572  0.15139
[ bonds ]
18897 18899     1  0.09572  0.15139
[ bonds ]
18900 18901     1  0.09572  0.15139
[ bonds ]
18900 18902     1  0.09572  0.15139
[ bonds ]
18903 18904     1  0.09572  0.15139
[ bonds ]
18903 18905     1  0.09572  0.15139
[ bonds ]
18906 18907     1  0.09572  0.15139
[ bonds ]
18906 18908     1  0.09572  0.15139
[ bonds ]
18909 18910     1  0.09572  0.15139
[ bonds ]
18909 18911     1  0.09572  0.15139
[ bonds ]
18912 18913     1  0.09572  0.15139
[ bonds ]
18912 18914     1  0.09572  0.15139
[ bonds ]
18915 18916     1  0.09572  0.15139
[ bonds ]
18915 18917     1  0.09572  0.15139
[ bonds ]
18918 18919     1  0.09572  0.15139
[ bonds ]
18918 18920     1  0.09572  0.15139
[ bonds ]
18921 18922     1  0.09572  0.15139
[ bonds ]
18921 18923     1  0.09572  0.15139
[ bonds ]
18924 18925     1  0.09572  0.15139
[ bonds ]
18924 18926     1  0.09572  0.15139
[ bonds ]
18927 18928     1  0.09572  0.15139
[ bonds ]
18927 18929     1  0.09572  0.15139
[ bonds ]
18930 18931     1  0.09572  0.15139
[ bonds ]
18930 18932     1  0.09572  0.15139
[ bonds ]
18933 18934     1  0.09572  0.15139
[ bonds ]
18933 18935     1  0.09572  0.15139
[ bonds ]
18936 18937     1  0.09572  0.15139
[ bonds ]
18936 18938     1  0.09572  0.15139
[ bonds ]
18939 18940     1  0.09572  0.15139
[ bonds ]
18939 18941     1  0.09572  0.15139
[ bonds ]
18942 18943     1  0.09572  0.15139
[ bonds ]
18942 18944     1  0.09572  0.15139
[ bonds ]
18945 18946     1  0.09572  0.15139
[ bonds ]
18945 18947     1  0.09572  0.15139
[ bonds ]
18948 18949     1  0.09572  0.15139
[ bonds ]
18948 18950     1  0.09572  0.15139
[ bonds ]
18951 18952     1  0.09572  0.15139
[ bonds ]
18951 18953     1  0.09572  0.15139
[ bonds ]
18954 18955     1  0.09572  0.15139
[ bonds ]
18954 18956     1  0.09572  0.15139
[ bonds ]
18957 18958     1  0.09572  0.15139
[ bonds ]
18957 18959     1  0.09572  0.15139
[ bonds ]
18960 18961     1  0.09572  0.15139
[ bonds ]
18960 18962     1  0.09572  0.15139
[ bonds ]
18963 18964     1  0.09572  0.15139
[ bonds ]
18963 18965     1  0.09572  0.15139
[ bonds ]
18966 18967     1  0.09572  0.15139
[ bonds ]
18966 18968     1  0.09572  0.15139
[ bonds ]
18969 18970     1  0.09572  0.15139
[ bonds ]
18969 18971     1  0.09572  0.15139
[ bonds ]
18972 18973     1  0.09572  0.15139
[ bonds ]
18972 18974     1  0.09572  0.15139
[ bonds ]
18975 18976     1  0.09572  0.15139
[ bonds ]
18975 18977     1  0.09572  0.15139
[ bonds ]
18978 18979     1  0.09572  0.15139
[ bonds ]
18978 18980     1  0.09572  0.15139
[ bonds ]
18981 18982     1  0.09572  0.15139
[ bonds ]
18981 18983     1  0.09572  0.15139
[ bonds ]
18984 18985     1  0.09572  0.15139
[ bonds ]
18984 18986     1  0.09572  0.15139
[ bonds ]
18987 18988     1  0.09572  0.15139
[ bonds ]
18987 18989     1  0.09572  0.15139
[ bonds ]
18990 18991     1  0.09572  0.15139
[ bonds ]
18990 18992     1  0.09572  0.15139
[ bonds ]
18993 18994     1  0.09572  0.15139
[ bonds ]
18993 18995     1  0.09572  0.15139
[ bonds ]
18996 18997     1  0.09572  0.15139
[ bonds ]
18996 18998     1  0.09572  0.15139
[ bonds ]
18999 19000     1  0.09572  0.15139
[ bonds ]
18999 19001     1  0.09572  0.15139
[ bonds ]
19002 19003     1  0.09572  0.15139
[ bonds ]
19002 19004     1  0.09572  0.15139
[ bonds ]
19005 19006     1  0.09572  0.15139
[ bonds ]
19005 19007     1  0.09572  0.15139
[ bonds ]
19008 19009     1  0.09572  0.15139
[ bonds ]
19008 19010     1  0.09572  0.15139
[ bonds ]
19011 19012     1  0.09572  0.15139
[ bonds ]
19011 19013     1  0.09572  0.15139
[ bonds ]
19014 19015     1  0.09572  0.15139
[ bonds ]
19014 19016     1  0.09572  0.15139
[ bonds ]
19017 19018     1  0.09572  0.15139
[ bonds ]
19017 19019     1  0.09572  0.15139
[ bonds ]
19020 19021     1  0.09572  0.15139
[ bonds ]
19020 19022     1  0.09572  0.15139
[ bonds ]
19023 19024     1  0.09572  0.15139
[ bonds ]
19023 19025     1  0.09572  0.15139
[ bonds ]
19026 19027     1  0.09572  0.15139
[ bonds ]
19026 19028     1  0.09572  0.15139
[ bonds ]
19029 19030     1  0.09572  0.15139
[ bonds ]
19029 19031     1  0.09572  0.15139
[ bonds ]
19032 19033     1  0.09572  0.15139
[ bonds ]
19032 19034     1  0.09572  0.15139
[ bonds ]
19035 19036     1  0.09572  0.15139
[ bonds ]
19035 19037     1  0.09572  0.15139
[ bonds ]
19038 19039     1  0.09572  0.15139
[ bonds ]
19038 19040     1  0.09572  0.15139
[ bonds ]
19041 19042     1  0.09572  0.15139
[ bonds ]
19041 19043     1  0.09572  0.15139
[ bonds ]
19044 19045     1  0.09572  0.15139
[ bonds ]
19044 19046     1  0.09572  0.15139
[ bonds ]
19047 19048     1  0.09572  0.15139
[ bonds ]
19047 19049     1  0.09572  0.15139
[ bonds ]
19050 19051     1  0.09572  0.15139
[ bonds ]
19050 19052     1  0.09572  0.15139
[ bonds ]
19053 19054     1  0.09572  0.15139
[ bonds ]
19053 19055     1  0.09572  0.15139
[ bonds ]
19056 19057     1  0.09572  0.15139
[ bonds ]
19056 19058     1  0.09572  0.15139
[ bonds ]
19059 19060     1  0.09572  0.15139
[ bonds ]
19059 19061     1  0.09572  0.15139
[ bonds ]
19062 19063     1  0.09572  0.15139
[ bonds ]
19062 19064     1  0.09572  0.15139
[ bonds ]
19065 19066     1  0.09572  0.15139
[ bonds ]
19065 19067     1  0.09572  0.15139
[ bonds ]
19068 19069     1  0.09572  0.15139
[ bonds ]
19068 19070     1  0.09572  0.15139
[ bonds ]
19071 19072     1  0.09572  0.15139
[ bonds ]
19071 19073     1  0.09572  0.15139
[ bonds ]
19074 19075     1  0.09572  0.15139
[ bonds ]
19074 19076     1  0.09572  0.15139
[ bonds ]
19077 19078     1  0.09572  0.15139
[ bonds ]
19077 19079     1  0.09572  0.15139
[ bonds ]
19080 19081     1  0.09572  0.15139
[ bonds ]
19080 19082     1  0.09572  0.15139
[ bonds ]
19083 19084     1  0.09572  0.15139
[ bonds ]
19083 19085     1  0.09572  0.15139
[ bonds ]
19086 19087     1  0.09572  0.15139
[ bonds ]
19086 19088     1  0.09572  0.15139
[ bonds ]
19089 19090     1  0.09572  0.15139
[ bonds ]
19089 19091     1  0.09572  0.15139
[ bonds ]
19092 19093     1  0.09572  0.15139
[ bonds ]
19092 19094     1  0.09572  0.15139
[ bonds ]
19095 19096     1  0.09572  0.15139
[ bonds ]
19095 19097     1  0.09572  0.15139
[ bonds ]
19098 19099     1  0.09572  0.15139
[ bonds ]
19098 19100     1  0.09572  0.15139
[ bonds ]
19101 19102     1  0.09572  0.15139
[ bonds ]
19101 19103     1  0.09572  0.15139
[ bonds ]
19104 19105     1  0.09572  0.15139
[ bonds ]
19104 19106     1  0.09572  0.15139
[ bonds ]
19107 19108     1  0.09572  0.15139
[ bonds ]
19107 19109     1  0.09572  0.15139
[ bonds ]
19110 19111     1  0.09572  0.15139
[ bonds ]
19110 19112     1  0.09572  0.15139
[ bonds ]
19113 19114     1  0.09572  0.15139
[ bonds ]
19113 19115     1  0.09572  0.15139
[ bonds ]
19116 19117     1  0.09572  0.15139
[ bonds ]
19116 19118     1  0.09572  0.15139
[ bonds ]
19119 19120     1  0.09572  0.15139
[ bonds ]
19119 19121     1  0.09572  0.15139
[ bonds ]
19122 19123     1  0.09572  0.15139
[ bonds ]
19122 19124     1  0.09572  0.15139
[ bonds ]
19125 19126     1  0.09572  0.15139
[ bonds ]
19125 19127     1  0.09572  0.15139
[ bonds ]
19128 19129     1  0.09572  0.15139
[ bonds ]
19128 19130     1  0.09572  0.15139
[ bonds ]
19131 19132     1  0.09572  0.15139
[ bonds ]
19131 19133     1  0.09572  0.15139
[ bonds ]
19134 19135     1  0.09572  0.15139
[ bonds ]
19134 19136     1  0.09572  0.15139
[ bonds ]
19137 19138     1  0.09572  0.15139
[ bonds ]
19137 19139     1  0.09572  0.15139
[ bonds ]
19140 19141     1  0.09572  0.15139
[ bonds ]
19140 19142     1  0.09572  0.15139
[ bonds ]
19143 19144     1  0.09572  0.15139
[ bonds ]
19143 19145     1  0.09572  0.15139
[ bonds ]
19146 19147     1  0.09572  0.15139
[ bonds ]
19146 19148     1  0.09572  0.15139
[ bonds ]
19149 19150     1  0.09572  0.15139
[ bonds ]
19149 19151     1  0.09572  0.15139
[ bonds ]
19152 19153     1  0.09572  0.15139
[ bonds ]
19152 19154     1  0.09572  0.15139
[ bonds ]
19155 19156     1  0.09572  0.15139
[ bonds ]
19155 19157     1  0.09572  0.15139
[ bonds ]
19158 19159     1  0.09572  0.15139
[ bonds ]
19158 19160     1  0.09572  0.15139
[ bonds ]
19161 19162     1  0.09572  0.15139
[ bonds ]
19161 19163     1  0.09572  0.15139
[ bonds ]
19164 19165     1  0.09572  0.15139
[ bonds ]
19164 19166     1  0.09572  0.15139
[ bonds ]
19167 19168     1  0.09572  0.15139
[ bonds ]
19167 19169     1  0.09572  0.15139
[ bonds ]
19170 19171     1  0.09572  0.15139
[ bonds ]
19170 19172     1  0.09572  0.15139
[ bonds ]
19173 19174     1  0.09572  0.15139
[ bonds ]
19173 19175     1  0.09572  0.15139
[ bonds ]
19176 19177     1  0.09572  0.15139
[ bonds ]
19176 19178     1  0.09572  0.15139
[ bonds ]
19179 19180     1  0.09572  0.15139
[ bonds ]
19179 19181     1  0.09572  0.15139
[ bonds ]
19182 19183     1  0.09572  0.15139
[ bonds ]
19182 19184     1  0.09572  0.15139
[ bonds ]
19185 19186     1  0.09572  0.15139
[ bonds ]
19185 19187     1  0.09572  0.15139
[ bonds ]
19188 19189     1  0.09572  0.15139
[ bonds ]
19188 19190     1  0.09572  0.15139
[ bonds ]
19191 19192     1  0.09572  0.15139
[ bonds ]
19191 19193     1  0.09572  0.15139
[ bonds ]
19194 19195     1  0.09572  0.15139
[ bonds ]
19194 19196     1  0.09572  0.15139
[ bonds ]
19197 19198     1  0.09572  0.15139
[ bonds ]
19197 19199     1  0.09572  0.15139
[ bonds ]
19200 19201     1  0.09572  0.15139
[ bonds ]
19200 19202     1  0.09572  0.15139
[ bonds ]
19203 19204     1  0.09572  0.15139
[ bonds ]
19203 19205     1  0.09572  0.15139
[ bonds ]
19206 19207     1  0.09572  0.15139
[ bonds ]
19206 19208     1  0.09572  0.15139
[ bonds ]
19209 19210     1  0.09572  0.15139
[ bonds ]
19209 19211     1  0.09572  0.15139
[ bonds ]
19212 19213     1  0.09572  0.15139
[ bonds ]
19212 19214     1  0.09572  0.15139
[ bonds ]
19215 19216     1  0.09572  0.15139
[ bonds ]
19215 19217     1  0.09572  0.15139
[ bonds ]
19218 19219     1  0.09572  0.15139
[ bonds ]
19218 19220     1  0.09572  0.15139
[ bonds ]
19221 19222     1  0.09572  0.15139
[ bonds ]
19221 19223     1  0.09572  0.15139
[ bonds ]
19224 19225     1  0.09572  0.15139
[ bonds ]
19224 19226     1  0.09572  0.15139
[ bonds ]
19227 19228     1  0.09572  0.15139
[ bonds ]
19227 19229     1  0.09572  0.15139
[ bonds ]
19230 19231     1  0.09572  0.15139
[ bonds ]
19230 19232     1  0.09572  0.15139
[ bonds ]
19233 19234     1  0.09572  0.15139
[ bonds ]
19233 19235     1  0.09572  0.15139
[ bonds ]
19236 19237     1  0.09572  0.15139
[ bonds ]
19236 19238     1  0.09572  0.15139
[ bonds ]
19239 19240     1  0.09572  0.15139
[ bonds ]
19239 19241     1  0.09572  0.15139
[ bonds ]
19242 19243     1  0.09572  0.15139
[ bonds ]
19242 19244     1  0.09572  0.15139
[ bonds ]
19245 19246     1  0.09572  0.15139
[ bonds ]
19245 19247     1  0.09572  0.15139
[ bonds ]
19248 19249     1  0.09572  0.15139
[ bonds ]
19248 19250     1  0.09572  0.15139
[ bonds ]
19251 19252     1  0.09572  0.15139
[ bonds ]
19251 19253     1  0.09572  0.15139
[ bonds ]
19254 19255     1  0.09572  0.15139
[ bonds ]
19254 19256     1  0.09572  0.15139
[ bonds ]
19257 19258     1  0.09572  0.15139
[ bonds ]
19257 19259     1  0.09572  0.15139
[ bonds ]
19260 19261     1  0.09572  0.15139
[ bonds ]
19260 19262     1  0.09572  0.15139
[ bonds ]
19263 19264     1  0.09572  0.15139
[ bonds ]
19263 19265     1  0.09572  0.15139
[ bonds ]
19266 19267     1  0.09572  0.15139
[ bonds ]
19266 19268     1  0.09572  0.15139
[ bonds ]
19269 19270     1  0.09572  0.15139
[ bonds ]
19269 19271     1  0.09572  0.15139
[ bonds ]
19272 19273     1  0.09572  0.15139
[ bonds ]
19272 19274     1  0.09572  0.15139
[ bonds ]
19275 19276     1  0.09572  0.15139
[ bonds ]
19275 19277     1  0.09572  0.15139
[ bonds ]
19278 19279     1  0.09572  0.15139
[ bonds ]
19278 19280     1  0.09572  0.15139
[ bonds ]
19281 19282     1  0.09572  0.15139
[ bonds ]
19281 19283     1  0.09572  0.15139
[ bonds ]
19284 19285     1  0.09572  0.15139
[ bonds ]
19284 19286     1  0.09572  0.15139
[ bonds ]
19287 19288     1  0.09572  0.15139
[ bonds ]
19287 19289     1  0.09572  0.15139
[ bonds ]
19290 19291     1  0.09572  0.15139
[ bonds ]
19290 19292     1  0.09572  0.15139
[ bonds ]
19293 19294     1  0.09572  0.15139
[ bonds ]
19293 19295     1  0.09572  0.15139
[ bonds ]
19296 19297     1  0.09572  0.15139
[ bonds ]
19296 19298     1  0.09572  0.15139
[ bonds ]
19299 19300     1  0.09572  0.15139
[ bonds ]
19299 19301     1  0.09572  0.15139
[ bonds ]
19302 19303     1  0.09572  0.15139
[ bonds ]
19302 19304     1  0.09572  0.15139
[ bonds ]
19305 19306     1  0.09572  0.15139
[ bonds ]
19305 19307     1  0.09572  0.15139
[ bonds ]
19308 19309     1  0.09572  0.15139
[ bonds ]
19308 19310     1  0.09572  0.15139
[ bonds ]
19311 19312     1  0.09572  0.15139
[ bonds ]
19311 19313     1  0.09572  0.15139
[ bonds ]
19314 19315     1  0.09572  0.15139
[ bonds ]
19314 19316     1  0.09572  0.15139
[ bonds ]
19317 19318     1  0.09572  0.15139
[ bonds ]
19317 19319     1  0.09572  0.15139
[ bonds ]
19320 19321     1  0.09572  0.15139
[ bonds ]
19320 19322     1  0.09572  0.15139
[ bonds ]
19323 19324     1  0.09572  0.15139
[ bonds ]
19323 19325     1  0.09572  0.15139
[ bonds ]
19326 19327     1  0.09572  0.15139
[ bonds ]
19326 19328     1  0.09572  0.15139
[ bonds ]
19329 19330     1  0.09572  0.15139
[ bonds ]
19329 19331     1  0.09572  0.15139
[ bonds ]
19332 19333     1  0.09572  0.15139
[ bonds ]
19332 19334     1  0.09572  0.15139
[ bonds ]
19335 19336     1  0.09572  0.15139
[ bonds ]
19335 19337     1  0.09572  0.15139
[ bonds ]
19338 19339     1  0.09572  0.15139
[ bonds ]
19338 19340     1  0.09572  0.15139
[ bonds ]
19341 19342     1  0.09572  0.15139
[ bonds ]
19341 19343     1  0.09572  0.15139
[ bonds ]
19344 19345     1  0.09572  0.15139
[ bonds ]
19344 19346     1  0.09572  0.15139
[ bonds ]
19347 19348     1  0.09572  0.15139
[ bonds ]
19347 19349     1  0.09572  0.15139
[ bonds ]
19350 19351     1  0.09572  0.15139
[ bonds ]
19350 19352     1  0.09572  0.15139
[ bonds ]
19353 19354     1  0.09572  0.15139
[ bonds ]
19353 19355     1  0.09572  0.15139
[ bonds ]
19356 19357     1  0.09572  0.15139
[ bonds ]
19356 19358     1  0.09572  0.15139
[ bonds ]
19359 19360     1  0.09572  0.15139
[ bonds ]
19359 19361     1  0.09572  0.15139
[ bonds ]
19362 19363     1  0.09572  0.15139
[ bonds ]
19362 19364     1  0.09572  0.15139
[ bonds ]
19365 19366     1  0.09572  0.15139
[ bonds ]
19365 19367     1  0.09572  0.15139
[ bonds ]
19368 19369     1  0.09572  0.15139
[ bonds ]
19368 19370     1  0.09572  0.15139
[ bonds ]
19371 19372     1  0.09572  0.15139
[ bonds ]
19371 19373     1  0.09572  0.15139
[ bonds ]
19374 19375     1  0.09572  0.15139
[ bonds ]
19374 19376     1  0.09572  0.15139
[ bonds ]
19377 19378     1  0.09572  0.15139
[ bonds ]
19377 19379     1  0.09572  0.15139
[ bonds ]
19380 19381     1  0.09572  0.15139
[ bonds ]
19380 19382     1  0.09572  0.15139
[ bonds ]
19383 19384     1  0.09572  0.15139
[ bonds ]
19383 19385     1  0.09572  0.15139
[ bonds ]
19386 19387     1  0.09572  0.15139
[ bonds ]
19386 19388     1  0.09572  0.15139
[ bonds ]
19389 19390     1  0.09572  0.15139
[ bonds ]
19389 19391     1  0.09572  0.15139
[ bonds ]
19392 19393     1  0.09572  0.15139
[ bonds ]
19392 19394     1  0.09572  0.15139
[ bonds ]
19395 19396     1  0.09572  0.15139
[ bonds ]
19395 19397     1  0.09572  0.15139
[ bonds ]
19398 19399     1  0.09572  0.15139
[ bonds ]
19398 19400     1  0.09572  0.15139
[ bonds ]
19401 19402     1  0.09572  0.15139
[ bonds ]
19401 19403     1  0.09572  0.15139
[ bonds ]
19404 19405     1  0.09572  0.15139
[ bonds ]
19404 19406     1  0.09572  0.15139
[ bonds ]
19407 19408     1  0.09572  0.15139
[ bonds ]
19407 19409     1  0.09572  0.15139
[ bonds ]
19410 19411     1  0.09572  0.15139
[ bonds ]
19410 19412     1  0.09572  0.15139
[ bonds ]
19413 19414     1  0.09572  0.15139
[ bonds ]
19413 19415     1  0.09572  0.15139
[ bonds ]
19416 19417     1  0.09572  0.15139
[ bonds ]
19416 19418     1  0.09572  0.15139
[ bonds ]
19419 19420     1  0.09572  0.15139
[ bonds ]
19419 19421     1  0.09572  0.15139
[ bonds ]
19422 19423     1  0.09572  0.15139
[ bonds ]
19422 19424     1  0.09572  0.15139
[ bonds ]
19425 19426     1  0.09572  0.15139
[ bonds ]
19425 19427     1  0.09572  0.15139
[ bonds ]
19428 19429     1  0.09572  0.15139
[ bonds ]
19428 19430     1  0.09572  0.15139
[ bonds ]
19431 19432     1  0.09572  0.15139
[ bonds ]
19431 19433     1  0.09572  0.15139
[ bonds ]
19434 19435     1  0.09572  0.15139
[ bonds ]
19434 19436     1  0.09572  0.15139
[ bonds ]
19437 19438     1  0.09572  0.15139
[ bonds ]
19437 19439     1  0.09572  0.15139
[ bonds ]
19440 19441     1  0.09572  0.15139
[ bonds ]
19440 19442     1  0.09572  0.15139
[ bonds ]
19443 19444     1  0.09572  0.15139
[ bonds ]
19443 19445     1  0.09572  0.15139
[ bonds ]
19446 19447     1  0.09572  0.15139
[ bonds ]
19446 19448     1  0.09572  0.15139
[ bonds ]
19449 19450     1  0.09572  0.15139
[ bonds ]
19449 19451     1  0.09572  0.15139
[ bonds ]
19452 19453     1  0.09572  0.15139
[ bonds ]
19452 19454     1  0.09572  0.15139
[ bonds ]
19455 19456     1  0.09572  0.15139
[ bonds ]
19455 19457     1  0.09572  0.15139
[ bonds ]
19458 19459     1  0.09572  0.15139
[ bonds ]
19458 19460     1  0.09572  0.15139
[ bonds ]
19461 19462     1  0.09572  0.15139
[ bonds ]
19461 19463     1  0.09572  0.15139
[ bonds ]
19464 19465     1  0.09572  0.15139
[ bonds ]
19464 19466     1  0.09572  0.15139
[ bonds ]
19467 19468     1  0.09572  0.15139
[ bonds ]
19467 19469     1  0.09572  0.15139
[ bonds ]
19470 19471     1  0.09572  0.15139
[ bonds ]
19470 19472     1  0.09572  0.15139
[ bonds ]
19473 19474     1  0.09572  0.15139
[ bonds ]
19473 19475     1  0.09572  0.15139
[ bonds ]
19476 19477     1  0.09572  0.15139
[ bonds ]
19476 19478     1  0.09572  0.15139
[ bonds ]
19479 19480     1  0.09572  0.15139
[ bonds ]
19479 19481     1  0.09572  0.15139
[ bonds ]
19482 19483     1  0.09572  0.15139
[ bonds ]
19482 19484     1  0.09572  0.15139
[ bonds ]
19485 19486     1  0.09572  0.15139
[ bonds ]
19485 19487     1  0.09572  0.15139
[ bonds ]
19488 19489     1  0.09572  0.15139
[ bonds ]
19488 19490     1  0.09572  0.15139
[ bonds ]
19491 19492     1  0.09572  0.15139
[ bonds ]
19491 19493     1  0.09572  0.15139
[ bonds ]
19494 19495     1  0.09572  0.15139
[ bonds ]
19494 19496     1  0.09572  0.15139
[ bonds ]
19497 19498     1  0.09572  0.15139
[ bonds ]
19497 19499     1  0.09572  0.15139
[ bonds ]
19500 19501     1  0.09572  0.15139
[ bonds ]
19500 19502     1  0.09572  0.15139
[ bonds ]
19503 19504     1  0.09572  0.15139
[ bonds ]
19503 19505     1  0.09572  0.15139
[ bonds ]
19506 19507     1  0.09572  0.15139
[ bonds ]
19506 19508     1  0.09572  0.15139
[ bonds ]
19509 19510     1  0.09572  0.15139
[ bonds ]
19509 19511     1  0.09572  0.15139
[ bonds ]
19512 19513     1  0.09572  0.15139
[ bonds ]
19512 19514     1  0.09572  0.15139
[ bonds ]
19515 19516     1  0.09572  0.15139
[ bonds ]
19515 19517     1  0.09572  0.15139
[ bonds ]
19518 19519     1  0.09572  0.15139
[ bonds ]
19518 19520     1  0.09572  0.15139
[ bonds ]
19521 19522     1  0.09572  0.15139
[ bonds ]
19521 19523     1  0.09572  0.15139
[ bonds ]
19524 19525     1  0.09572  0.15139
[ bonds ]
19524 19526     1  0.09572  0.15139
[ bonds ]
19527 19528     1  0.09572  0.15139
[ bonds ]
19527 19529     1  0.09572  0.15139
[ bonds ]
19530 19531     1  0.09572  0.15139
[ bonds ]
19530 19532     1  0.09572  0.15139
[ bonds ]
19533 19534     1  0.09572  0.15139
[ bonds ]
19533 19535     1  0.09572  0.15139
[ bonds ]
19536 19537     1  0.09572  0.15139
[ bonds ]
19536 19538     1  0.09572  0.15139
[ bonds ]
19539 19540     1  0.09572  0.15139
[ bonds ]
19539 19541     1  0.09572  0.15139
[ bonds ]
19542 19543     1  0.09572  0.15139
[ bonds ]
19542 19544     1  0.09572  0.15139
[ bonds ]
19545 19546     1  0.09572  0.15139
[ bonds ]
19545 19547     1  0.09572  0.15139
[ bonds ]
19548 19549     1  0.09572  0.15139
[ bonds ]
19548 19550     1  0.09572  0.15139
[ bonds ]
19551 19552     1  0.09572  0.15139
[ bonds ]
19551 19553     1  0.09572  0.15139
[ bonds ]
19554 19555     1  0.09572  0.15139
[ bonds ]
19554 19556     1  0.09572  0.15139
[ bonds ]
19557 19558     1  0.09572  0.15139
[ bonds ]
19557 19559     1  0.09572  0.15139
[ bonds ]
19560 19561     1  0.09572  0.15139
[ bonds ]
19560 19562     1  0.09572  0.15139
[ bonds ]
19563 19564     1  0.09572  0.15139
[ bonds ]
19563 19565     1  0.09572  0.15139
[ bonds ]
19566 19567     1  0.09572  0.15139
[ bonds ]
19566 19568     1  0.09572  0.15139
[ bonds ]
19569 19570     1  0.09572  0.15139
[ bonds ]
19569 19571     1  0.09572  0.15139
[ bonds ]
19572 19573     1  0.09572  0.15139
[ bonds ]
19572 19574     1  0.09572  0.15139
[ bonds ]
19575 19576     1  0.09572  0.15139
[ bonds ]
19575 19577     1  0.09572  0.15139
[ bonds ]
19578 19579     1  0.09572  0.15139
[ bonds ]
19578 19580     1  0.09572  0.15139
[ bonds ]
19581 19582     1  0.09572  0.15139
[ bonds ]
19581 19583     1  0.09572  0.15139
[ bonds ]
19584 19585     1  0.09572  0.15139
[ bonds ]
19584 19586     1  0.09572  0.15139
[ bonds ]
19587 19588     1  0.09572  0.15139
[ bonds ]
19587 19589     1  0.09572  0.15139
[ bonds ]
19590 19591     1  0.09572  0.15139
[ bonds ]
19590 19592     1  0.09572  0.15139
[ bonds ]
19593 19594     1  0.09572  0.15139
[ bonds ]
19593 19595     1  0.09572  0.15139
[ bonds ]
19596 19597     1  0.09572  0.15139
[ bonds ]
19596 19598     1  0.09572  0.15139
[ bonds ]
19599 19600     1  0.09572  0.15139
[ bonds ]
19599 19601     1  0.09572  0.15139
[ bonds ]
19602 19603     1  0.09572  0.15139
[ bonds ]
19602 19604     1  0.09572  0.15139
[ bonds ]
19605 19606     1  0.09572  0.15139
[ bonds ]
19605 19607     1  0.09572  0.15139
[ bonds ]
19608 19609     1  0.09572  0.15139
[ bonds ]
19608 19610     1  0.09572  0.15139
[ bonds ]
19611 19612     1  0.09572  0.15139
[ bonds ]
19611 19613     1  0.09572  0.15139
[ bonds ]
19614 19615     1  0.09572  0.15139
[ bonds ]
19614 19616     1  0.09572  0.15139
[ bonds ]
19617 19618     1  0.09572  0.15139
[ bonds ]
19617 19619     1  0.09572  0.15139
[ bonds ]
19620 19621     1  0.09572  0.15139
[ bonds ]
19620 19622     1  0.09572  0.15139
[ bonds ]
19623 19624     1  0.09572  0.15139
[ bonds ]
19623 19625     1  0.09572  0.15139
[ bonds ]
19626 19627     1  0.09572  0.15139
[ bonds ]
19626 19628     1  0.09572  0.15139
[ bonds ]
19629 19630     1  0.09572  0.15139
[ bonds ]
19629 19631     1  0.09572  0.15139
[ bonds ]
19632 19633     1  0.09572  0.15139
[ bonds ]
19632 19634     1  0.09572  0.15139
[ bonds ]
19635 19636     1  0.09572  0.15139
[ bonds ]
19635 19637     1  0.09572  0.15139
[ bonds ]
19638 19639     1  0.09572  0.15139
[ bonds ]
19638 19640     1  0.09572  0.15139
[ bonds ]
19641 19642     1  0.09572  0.15139
[ bonds ]
19641 19643     1  0.09572  0.15139
[ bonds ]
19644 19645     1  0.09572  0.15139
[ bonds ]
19644 19646     1  0.09572  0.15139
[ bonds ]
19647 19648     1  0.09572  0.15139
[ bonds ]
19647 19649     1  0.09572  0.15139
[ bonds ]
19650 19651     1  0.09572  0.15139
[ bonds ]
19650 19652     1  0.09572  0.15139
[ bonds ]
19653 19654     1  0.09572  0.15139
[ bonds ]
19653 19655     1  0.09572  0.15139
[ bonds ]
19656 19657     1  0.09572  0.15139
[ bonds ]
19656 19658     1  0.09572  0.15139
[ bonds ]
19659 19660     1  0.09572  0.15139
[ bonds ]
19659 19661     1  0.09572  0.15139
[ bonds ]
19662 19663     1  0.09572  0.15139
[ bonds ]
19662 19664     1  0.09572  0.15139
[ bonds ]
19665 19666     1  0.09572  0.15139
[ bonds ]
19665 19667     1  0.09572  0.15139
[ bonds ]
19668 19669     1  0.09572  0.15139
[ bonds ]
19668 19670     1  0.09572  0.15139
[ bonds ]
19671 19672     1  0.09572  0.15139
[ bonds ]
19671 19673     1  0.09572  0.15139
[ bonds ]
19674 19675     1  0.09572  0.15139
[ bonds ]
19674 19676     1  0.09572  0.15139
[ bonds ]
19677 19678     1  0.09572  0.15139
[ bonds ]
19677 19679     1  0.09572  0.15139
[ bonds ]
19680 19681     1  0.09572  0.15139
[ bonds ]
19680 19682     1  0.09572  0.15139
[ bonds ]
19683 19684     1  0.09572  0.15139
[ bonds ]
19683 19685     1  0.09572  0.15139
[ bonds ]
19686 19687     1  0.09572  0.15139
[ bonds ]
19686 19688     1  0.09572  0.15139
[ bonds ]
19689 19690     1  0.09572  0.15139
[ bonds ]
19689 19691     1  0.09572  0.15139
[ bonds ]
19692 19693     1  0.09572  0.15139
[ bonds ]
19692 19694     1  0.09572  0.15139
[ bonds ]
19695 19696     1  0.09572  0.15139
[ bonds ]
19695 19697     1  0.09572  0.15139
[ bonds ]
19698 19699     1  0.09572  0.15139
[ bonds ]
19698 19700     1  0.09572  0.15139
[ bonds ]
19701 19702     1  0.09572  0.15139
[ bonds ]
19701 19703     1  0.09572  0.15139
[ bonds ]
19704 19705     1  0.09572  0.15139
[ bonds ]
19704 19706     1  0.09572  0.15139
[ bonds ]
19707 19708     1  0.09572  0.15139
[ bonds ]
19707 19709     1  0.09572  0.15139
[ bonds ]
19710 19711     1  0.09572  0.15139
[ bonds ]
19710 19712     1  0.09572  0.15139
[ bonds ]
19713 19714     1  0.09572  0.15139
[ bonds ]
19713 19715     1  0.09572  0.15139
[ bonds ]
19716 19717     1  0.09572  0.15139
[ bonds ]
19716 19718     1  0.09572  0.15139
[ bonds ]
19719 19720     1  0.09572  0.15139
[ bonds ]
19719 19721     1  0.09572  0.15139
[ bonds ]
19722 19723     1  0.09572  0.15139
[ bonds ]
19722 19724     1  0.09572  0.15139
[ bonds ]
19725 19726     1  0.09572  0.15139
[ bonds ]
19725 19727     1  0.09572  0.15139
[ bonds ]
19728 19729     1  0.09572  0.15139
[ bonds ]
19728 19730     1  0.09572  0.15139
[ bonds ]
19731 19732     1  0.09572  0.15139
[ bonds ]
19731 19733     1  0.09572  0.15139
[ bonds ]
19734 19735     1  0.09572  0.15139
[ bonds ]
19734 19736     1  0.09572  0.15139
[ bonds ]
19737 19738     1  0.09572  0.15139
[ bonds ]
19737 19739     1  0.09572  0.15139
[ bonds ]
19740 19741     1  0.09572  0.15139
[ bonds ]
19740 19742     1  0.09572  0.15139
[ bonds ]
19743 19744     1  0.09572  0.15139
[ bonds ]
19743 19745     1  0.09572  0.15139
[ bonds ]
19746 19747     1  0.09572  0.15139
[ bonds ]
19746 19748     1  0.09572  0.15139
[ bonds ]
19749 19750     1  0.09572  0.15139
[ bonds ]
19749 19751     1  0.09572  0.15139
[ bonds ]
19752 19753     1  0.09572  0.15139
[ bonds ]
19752 19754     1  0.09572  0.15139
[ bonds ]
19755 19756     1  0.09572  0.15139
[ bonds ]
19755 19757     1  0.09572  0.15139
[ bonds ]
19758 19759     1  0.09572  0.15139
[ bonds ]
19758 19760     1  0.09572  0.15139
[ bonds ]
19761 19762     1  0.09572  0.15139
[ bonds ]
19761 19763     1  0.09572  0.15139
[ bonds ]
19764 19765     1  0.09572  0.15139
[ bonds ]
19764 19766     1  0.09572  0.15139
[ bonds ]
19767 19768     1  0.09572  0.15139
[ bonds ]
19767 19769     1  0.09572  0.15139
[ bonds ]
19770 19771     1  0.09572  0.15139
[ bonds ]
19770 19772     1  0.09572  0.15139
[ bonds ]
19773 19774     1  0.09572  0.15139
[ bonds ]
19773 19775     1  0.09572  0.15139
[ bonds ]
19776 19777     1  0.09572  0.15139
[ bonds ]
19776 19778     1  0.09572  0.15139
[ bonds ]
19779 19780     1  0.09572  0.15139
[ bonds ]
19779 19781     1  0.09572  0.15139
[ bonds ]
19782 19783     1  0.09572  0.15139
[ bonds ]
19782 19784     1  0.09572  0.15139
[ bonds ]
19785 19786     1  0.09572  0.15139
[ bonds ]
19785 19787     1  0.09572  0.15139
[ bonds ]
19788 19789     1  0.09572  0.15139
[ bonds ]
19788 19790     1  0.09572  0.15139
[ bonds ]
19791 19792     1  0.09572  0.15139
[ bonds ]
19791 19793     1  0.09572  0.15139
[ bonds ]
19794 19795     1  0.09572  0.15139
[ bonds ]
19794 19796     1  0.09572  0.15139
[ bonds ]
19797 19798     1  0.09572  0.15139
[ bonds ]
19797 19799     1  0.09572  0.15139
[ bonds ]
19800 19801     1  0.09572  0.15139
[ bonds ]
19800 19802     1  0.09572  0.15139
[ bonds ]
19803 19804     1  0.09572  0.15139
[ bonds ]
19803 19805     1  0.09572  0.15139
[ bonds ]
19806 19807     1  0.09572  0.15139
[ bonds ]
19806 19808     1  0.09572  0.15139
[ bonds ]
19809 19810     1  0.09572  0.15139
[ bonds ]
19809 19811     1  0.09572  0.15139
[ bonds ]
19812 19813     1  0.09572  0.15139
[ bonds ]
19812 19814     1  0.09572  0.15139
[ bonds ]
19815 19816     1  0.09572  0.15139
[ bonds ]
19815 19817     1  0.09572  0.15139
[ bonds ]
19818 19819     1  0.09572  0.15139
[ bonds ]
19818 19820     1  0.09572  0.15139
[ bonds ]
19821 19822     1  0.09572  0.15139
[ bonds ]
19821 19823     1  0.09572  0.15139
[ bonds ]
19824 19825     1  0.09572  0.15139
[ bonds ]
19824 19826     1  0.09572  0.15139
[ bonds ]
19827 19828     1  0.09572  0.15139
[ bonds ]
19827 19829     1  0.09572  0.15139
[ bonds ]
19830 19831     1  0.09572  0.15139
[ bonds ]
19830 19832     1  0.09572  0.15139
[ bonds ]
19833 19834     1  0.09572  0.15139
[ bonds ]
19833 19835     1  0.09572  0.15139
[ bonds ]
19836 19837     1  0.09572  0.15139
[ bonds ]
19836 19838     1  0.09572  0.15139
[ bonds ]
19839 19840     1  0.09572  0.15139
[ bonds ]
19839 19841     1  0.09572  0.15139
[ bonds ]
19842 19843     1  0.09572  0.15139
[ bonds ]
19842 19844     1  0.09572  0.15139
[ bonds ]
19845 19846     1  0.09572  0.15139
[ bonds ]
19845 19847     1  0.09572  0.15139
[ bonds ]
19848 19849     1  0.09572  0.15139
[ bonds ]
19848 19850     1  0.09572  0.15139
[ bonds ]
19851 19852     1  0.09572  0.15139
[ bonds ]
19851 19853     1  0.09572  0.15139
[ bonds ]
19854 19855     1  0.09572  0.15139
[ bonds ]
19854 19856     1  0.09572  0.15139
[ bonds ]
19857 19858     1  0.09572  0.15139
[ bonds ]
19857 19859     1  0.09572  0.15139
[ bonds ]
19860 19861     1  0.09572  0.15139
[ bonds ]
19860 19862     1  0.09572  0.15139
[ bonds ]
19863 19864     1  0.09572  0.15139
[ bonds ]
19863 19865     1  0.09572  0.15139
[ bonds ]
19866 19867     1  0.09572  0.15139
[ bonds ]
19866 19868     1  0.09572  0.15139
[ bonds ]
19869 19870     1  0.09572  0.15139
[ bonds ]
19869 19871     1  0.09572  0.15139
[ bonds ]
19872 19873     1  0.09572  0.15139
[ bonds ]
19872 19874     1  0.09572  0.15139
[ bonds ]
19875 19876     1  0.09572  0.15139
[ bonds ]
19875 19877     1  0.09572  0.15139
[ bonds ]
19878 19879     1  0.09572  0.15139
[ bonds ]
19878 19880     1  0.09572  0.15139
[ bonds ]
19881 19882     1  0.09572  0.15139
[ bonds ]
19881 19883     1  0.09572  0.15139
[ bonds ]
19884 19885     1  0.09572  0.15139
[ bonds ]
19884 19886     1  0.09572  0.15139
[ bonds ]
19887 19888     1  0.09572  0.15139
[ bonds ]
19887 19889     1  0.09572  0.15139
[ bonds ]
19890 19891     1  0.09572  0.15139
[ bonds ]
19890 19892     1  0.09572  0.15139
[ bonds ]
19893 19894     1  0.09572  0.15139
[ bonds ]
19893 19895     1  0.09572  0.15139
[ bonds ]
19896 19897     1  0.09572  0.15139
[ bonds ]
19896 19898     1  0.09572  0.15139
[ bonds ]
19899 19900     1  0.09572  0.15139
[ bonds ]
19899 19901     1  0.09572  0.15139
[ bonds ]
19902 19903     1  0.09572  0.15139
[ bonds ]
19902 19904     1  0.09572  0.15139
[ bonds ]
19905 19906     1  0.09572  0.15139
[ bonds ]
19905 19907     1  0.09572  0.15139
[ bonds ]
19908 19909     1  0.09572  0.15139
[ bonds ]
19908 19910     1  0.09572  0.15139
[ bonds ]
19911 19912     1  0.09572  0.15139
[ bonds ]
19911 19913     1  0.09572  0.15139
[ bonds ]
19914 19915     1  0.09572  0.15139
[ bonds ]
19914 19916     1  0.09572  0.15139
[ bonds ]
19917 19918     1  0.09572  0.15139
[ bonds ]
19917 19919     1  0.09572  0.15139
[ bonds ]
19920 19921     1  0.09572  0.15139
[ bonds ]
19920 19922     1  0.09572  0.15139
[ bonds ]
19923 19924     1  0.09572  0.15139
[ bonds ]
19923 19925     1  0.09572  0.15139
[ bonds ]
19926 19927     1  0.09572  0.15139
[ bonds ]
19926 19928     1  0.09572  0.15139
[ bonds ]
19929 19930     1  0.09572  0.15139
[ bonds ]
19929 19931     1  0.09572  0.15139
[ bonds ]
19932 19933     1  0.09572  0.15139
[ bonds ]
19932 19934     1  0.09572  0.15139
[ bonds ]
19935 19936     1  0.09572  0.15139
[ bonds ]
19935 19937     1  0.09572  0.15139
[ bonds ]
19938 19939     1  0.09572  0.15139
[ bonds ]
19938 19940     1  0.09572  0.15139
[ bonds ]
19941 19942     1  0.09572  0.15139
[ bonds ]
19941 19943     1  0.09572  0.15139
[ bonds ]
19944 19945     1  0.09572  0.15139
[ bonds ]
19944 19946     1  0.09572  0.15139
[ bonds ]
19947 19948     1  0.09572  0.15139
[ bonds ]
19947 19949     1  0.09572  0.15139
[ bonds ]
19950 19951     1  0.09572  0.15139
[ bonds ]
19950 19952     1  0.09572  0.15139
[ bonds ]
19953 19954     1  0.09572  0.15139
[ bonds ]
19953 19955     1  0.09572  0.15139
[ bonds ]
19956 19957     1  0.09572  0.15139
[ bonds ]
19956 19958     1  0.09572  0.15139
[ bonds ]
19959 19960     1  0.09572  0.15139
[ bonds ]
19959 19961     1  0.09572  0.15139
[ bonds ]
19962 19963     1  0.09572  0.15139
[ bonds ]
19962 19964     1  0.09572  0.15139
[ bonds ]
19965 19966     1  0.09572  0.15139
[ bonds ]
19965 19967     1  0.09572  0.15139
[ bonds ]
19968 19969     1  0.09572  0.15139
[ bonds ]
19968 19970     1  0.09572  0.15139
[ bonds ]
19971 19972     1  0.09572  0.15139
[ bonds ]
19971 19973     1  0.09572  0.15139
[ bonds ]
19974 19975     1  0.09572  0.15139
[ bonds ]
19974 19976     1  0.09572  0.15139
[ bonds ]
19977 19978     1  0.09572  0.15139
[ bonds ]
19977 19979     1  0.09572  0.15139
[ bonds ]
19980 19981     1  0.09572  0.15139
[ bonds ]
19980 19982     1  0.09572  0.15139
[ bonds ]
19983 19984     1  0.09572  0.15139
[ bonds ]
19983 19985     1  0.09572  0.15139
[ bonds ]
19986 19987     1  0.09572  0.15139
[ bonds ]
19986 19988     1  0.09572  0.15139
[ bonds ]
19989 19990     1  0.09572  0.15139
[ bonds ]
19989 19991     1  0.09572  0.15139
[ bonds ]
19992 19993     1  0.09572  0.15139
[ bonds ]
19992 19994     1  0.09572  0.15139
[ bonds ]
19995 19996     1  0.09572  0.15139
[ bonds ]
19995 19997     1  0.09572  0.15139
[ bonds ]
19998 19999     1  0.09572  0.15139
[ bonds ]
19998 20000     1  0.09572  0.15139
[ bonds ]
20001 20002     1  0.09572  0.15139
[ bonds ]
20001 20003     1  0.09572  0.15139
[ bonds ]
20004 20005     1  0.09572  0.15139
[ bonds ]
20004 20006     1  0.09572  0.15139
[ bonds ]
20007 20008     1  0.09572  0.15139
[ bonds ]
20007 20009     1  0.09572  0.15139
[ bonds ]
20010 20011     1  0.09572  0.15139
[ bonds ]
20010 20012     1  0.09572  0.15139
[ bonds ]
20013 20014     1  0.09572  0.15139
[ bonds ]
20013 20015     1  0.09572  0.15139
[ bonds ]
20016 20017     1  0.09572  0.15139
[ bonds ]
20016 20018     1  0.09572  0.15139
[ bonds ]
20019 20020     1  0.09572  0.15139
[ bonds ]
20019 20021     1  0.09572  0.15139
[ bonds ]
20022 20023     1  0.09572  0.15139
[ bonds ]
20022 20024     1  0.09572  0.15139
[ bonds ]
20025 20026     1  0.09572  0.15139
[ bonds ]
20025 20027     1  0.09572  0.15139
[ bonds ]
20028 20029     1  0.09572  0.15139
[ bonds ]
20028 20030     1  0.09572  0.15139
[ bonds ]
20031 20032     1  0.09572  0.15139
[ bonds ]
20031 20033     1  0.09572  0.15139
[ bonds ]
20034 20035     1  0.09572  0.15139
[ bonds ]
20034 20036     1  0.09572  0.15139
[ bonds ]
20037 20038     1  0.09572  0.15139
[ bonds ]
20037 20039     1  0.09572  0.15139
[ bonds ]
20040 20041     1  0.09572  0.15139
[ bonds ]
20040 20042     1  0.09572  0.15139
[ bonds ]
20043 20044     1  0.09572  0.15139
[ bonds ]
20043 20045     1  0.09572  0.15139
[ bonds ]
20046 20047     1  0.09572  0.15139
[ bonds ]
20046 20048     1  0.09572  0.15139
[ bonds ]
20049 20050     1  0.09572  0.15139
[ bonds ]
20049 20051     1  0.09572  0.15139
[ bonds ]
20052 20053     1  0.09572  0.15139
[ bonds ]
20052 20054     1  0.09572  0.15139
[ bonds ]
20055 20056     1  0.09572  0.15139
[ bonds ]
20055 20057     1  0.09572  0.15139
[ bonds ]
20058 20059     1  0.09572  0.15139
[ bonds ]
20058 20060     1  0.09572  0.15139
[ bonds ]
20061 20062     1  0.09572  0.15139
[ bonds ]
20061 20063     1  0.09572  0.15139
[ bonds ]
20064 20065     1  0.09572  0.15139
[ bonds ]
20064 20066     1  0.09572  0.15139
[ bonds ]
20067 20068     1  0.09572  0.15139
[ bonds ]
20067 20069     1  0.09572  0.15139
[ bonds ]
20070 20071     1  0.09572  0.15139
[ bonds ]
20070 20072     1  0.09572  0.15139
[ bonds ]
20073 20074     1  0.09572  0.15139
[ bonds ]
20073 20075     1  0.09572  0.15139
[ bonds ]
20076 20077     1  0.09572  0.15139
[ bonds ]
20076 20078     1  0.09572  0.15139
[ bonds ]
20079 20080     1  0.09572  0.15139
[ bonds ]
20079 20081     1  0.09572  0.15139
[ bonds ]
20082 20083     1  0.09572  0.15139
[ bonds ]
20082 20084     1  0.09572  0.15139
[ bonds ]
20085 20086     1  0.09572  0.15139
[ bonds ]
20085 20087     1  0.09572  0.15139
[ bonds ]
20088 20089     1  0.09572  0.15139
[ bonds ]
20088 20090     1  0.09572  0.15139
[ bonds ]
20091 20092     1  0.09572  0.15139
[ bonds ]
20091 20093     1  0.09572  0.15139
[ bonds ]
20094 20095     1  0.09572  0.15139
[ bonds ]
20094 20096     1  0.09572  0.15139
[ bonds ]
20097 20098     1  0.09572  0.15139
[ bonds ]
20097 20099     1  0.09572  0.15139
[ bonds ]
20100 20101     1  0.09572  0.15139
[ bonds ]
20100 20102     1  0.09572  0.15139
[ bonds ]
20103 20104     1  0.09572  0.15139
[ bonds ]
20103 20105     1  0.09572  0.15139
[ bonds ]
20106 20107     1  0.09572  0.15139
[ bonds ]
20106 20108     1  0.09572  0.15139
[ bonds ]
20109 20110     1  0.09572  0.15139
[ bonds ]
20109 20111     1  0.09572  0.15139
[ bonds ]
20112 20113     1  0.09572  0.15139
[ bonds ]
20112 20114     1  0.09572  0.15139
[ bonds ]
20115 20116     1  0.09572  0.15139
[ bonds ]
20115 20117     1  0.09572  0.15139
[ bonds ]
20118 20119     1  0.09572  0.15139
[ bonds ]
20118 20120     1  0.09572  0.15139
[ bonds ]
20121 20122     1  0.09572  0.15139
[ bonds ]
20121 20123     1  0.09572  0.15139
[ bonds ]
20124 20125     1  0.09572  0.15139
[ bonds ]
20124 20126     1  0.09572  0.15139
[ bonds ]
20127 20128     1  0.09572  0.15139
[ bonds ]
20127 20129     1  0.09572  0.15139
[ bonds ]
20130 20131     1  0.09572  0.15139
[ bonds ]
20130 20132     1  0.09572  0.15139
[ bonds ]
20133 20134     1  0.09572  0.15139
[ bonds ]
20133 20135     1  0.09572  0.15139
[ bonds ]
20136 20137     1  0.09572  0.15139
[ bonds ]
20136 20138     1  0.09572  0.15139
[ bonds ]
20139 20140     1  0.09572  0.15139
[ bonds ]
20139 20141     1  0.09572  0.15139
[ bonds ]
20142 20143     1  0.09572  0.15139
[ bonds ]
20142 20144     1  0.09572  0.15139
[ bonds ]
20145 20146     1  0.09572  0.15139
[ bonds ]
20145 20147     1  0.09572  0.15139
[ bonds ]
20148 20149     1  0.09572  0.15139
[ bonds ]
20148 20150     1  0.09572  0.15139
[ bonds ]
20151 20152     1  0.09572  0.15139
[ bonds ]
20151 20153     1  0.09572  0.15139
[ bonds ]
20154 20155     1  0.09572  0.15139
[ bonds ]
20154 20156     1  0.09572  0.15139
[ bonds ]
20157 20158     1  0.09572  0.15139
[ bonds ]
20157 20159     1  0.09572  0.15139
[ bonds ]
20160 20161     1  0.09572  0.15139
[ bonds ]
20160 20162     1  0.09572  0.15139
[ bonds ]
20163 20164     1  0.09572  0.15139
[ bonds ]
20163 20165     1  0.09572  0.15139
[ bonds ]
20166 20167     1  0.09572  0.15139
[ bonds ]
20166 20168     1  0.09572  0.15139
[ bonds ]
20169 20170     1  0.09572  0.15139
[ bonds ]
20169 20171     1  0.09572  0.15139
[ bonds ]
20172 20173     1  0.09572  0.15139
[ bonds ]
20172 20174     1  0.09572  0.15139
[ bonds ]
20175 20176     1  0.09572  0.15139
[ bonds ]
20175 20177     1  0.09572  0.15139
[ bonds ]
20178 20179     1  0.09572  0.15139
[ bonds ]
20178 20180     1  0.09572  0.15139
[ bonds ]
20181 20182     1  0.09572  0.15139
[ bonds ]
20181 20183     1  0.09572  0.15139
[ bonds ]
20184 20185     1  0.09572  0.15139
[ bonds ]
20184 20186     1  0.09572  0.15139
[ bonds ]
20187 20188     1  0.09572  0.15139
[ bonds ]
20187 20189     1  0.09572  0.15139
[ bonds ]
20190 20191     1  0.09572  0.15139
[ bonds ]
20190 20192     1  0.09572  0.15139
[ bonds ]
20193 20194     1  0.09572  0.15139
[ bonds ]
20193 20195     1  0.09572  0.15139
[ bonds ]
20196 20197     1  0.09572  0.15139
[ bonds ]
20196 20198     1  0.09572  0.15139
[ bonds ]
20199 20200     1  0.09572  0.15139
[ bonds ]
20199 20201     1  0.09572  0.15139
[ bonds ]
20202 20203     1  0.09572  0.15139
[ bonds ]
20202 20204     1  0.09572  0.15139
[ bonds ]
20205 20206     1  0.09572  0.15139
[ bonds ]
20205 20207     1  0.09572  0.15139
[ bonds ]
20208 20209     1  0.09572  0.15139
[ bonds ]
20208 20210     1  0.09572  0.15139
[ bonds ]
20211 20212     1  0.09572  0.15139
[ bonds ]
20211 20213     1  0.09572  0.15139
[ bonds ]
20214 20215     1  0.09572  0.15139
[ bonds ]
20214 20216     1  0.09572  0.15139
[ bonds ]
20217 20218     1  0.09572  0.15139
[ bonds ]
20217 20219     1  0.09572  0.15139
[ bonds ]
20220 20221     1  0.09572  0.15139
[ bonds ]
20220 20222     1  0.09572  0.15139
[ bonds ]
20223 20224     1  0.09572  0.15139
[ bonds ]
20223 20225     1  0.09572  0.15139
[ bonds ]
20226 20227     1  0.09572  0.15139
[ bonds ]
20226 20228     1  0.09572  0.15139
[ bonds ]
20229 20230     1  0.09572  0.15139
[ bonds ]
20229 20231     1  0.09572  0.15139
[ bonds ]
20232 20233     1  0.09572  0.15139
[ bonds ]
20232 20234     1  0.09572  0.15139
[ bonds ]
20235 20236     1  0.09572  0.15139
[ bonds ]
20235 20237     1  0.09572  0.15139
[ bonds ]
20238 20239     1  0.09572  0.15139
[ bonds ]
20238 20240     1  0.09572  0.15139
[ bonds ]
20241 20242     1  0.09572  0.15139
[ bonds ]
20241 20243     1  0.09572  0.15139
[ bonds ]
20244 20245     1  0.09572  0.15139
[ bonds ]
20244 20246     1  0.09572  0.15139
[ bonds ]
20247 20248     1  0.09572  0.15139
[ bonds ]
20247 20249     1  0.09572  0.15139
[ bonds ]
20250 20251     1  0.09572  0.15139
[ bonds ]
20250 20252     1  0.09572  0.15139
[ bonds ]
20253 20254     1  0.09572  0.15139
[ bonds ]
20253 20255     1  0.09572  0.15139
[ bonds ]
20256 20257     1  0.09572  0.15139
[ bonds ]
20256 20258     1  0.09572  0.15139
[ bonds ]
20259 20260     1  0.09572  0.15139
[ bonds ]
20259 20261     1  0.09572  0.15139
[ bonds ]
20262 20263     1  0.09572  0.15139
[ bonds ]
20262 20264     1  0.09572  0.15139
[ bonds ]
20265 20266     1  0.09572  0.15139
[ bonds ]
20265 20267     1  0.09572  0.15139
[ bonds ]
20268 20269     1  0.09572  0.15139
[ bonds ]
20268 20270     1  0.09572  0.15139
[ bonds ]
20271 20272     1  0.09572  0.15139
[ bonds ]
20271 20273     1  0.09572  0.15139
[ bonds ]
20274 20275     1  0.09572  0.15139
[ bonds ]
20274 20276     1  0.09572  0.15139
[ bonds ]
20277 20278     1  0.09572  0.15139
[ bonds ]
20277 20279     1  0.09572  0.15139
[ bonds ]
20280 20281     1  0.09572  0.15139
[ bonds ]
20280 20282     1  0.09572  0.15139
[ bonds ]
20283 20284     1  0.09572  0.15139
[ bonds ]
20283 20285     1  0.09572  0.15139
[ bonds ]
20286 20287     1  0.09572  0.15139
[ bonds ]
20286 20288     1  0.09572  0.15139
[ bonds ]
20289 20290     1  0.09572  0.15139
[ bonds ]
20289 20291     1  0.09572  0.15139
[ bonds ]
20292 20293     1  0.09572  0.15139
[ bonds ]
20292 20294     1  0.09572  0.15139
[ bonds ]
20295 20296     1  0.09572  0.15139
[ bonds ]
20295 20297     1  0.09572  0.15139
[ bonds ]
20298 20299     1  0.09572  0.15139
[ bonds ]
20298 20300     1  0.09572  0.15139
[ bonds ]
20301 20302     1  0.09572  0.15139
[ bonds ]
20301 20303     1  0.09572  0.15139
[ bonds ]
20304 20305     1  0.09572  0.15139
[ bonds ]
20304 20306     1  0.09572  0.15139
[ bonds ]
20307 20308     1  0.09572  0.15139
[ bonds ]
20307 20309     1  0.09572  0.15139
[ bonds ]
20310 20311     1  0.09572  0.15139
[ bonds ]
20310 20312     1  0.09572  0.15139
[ bonds ]
20313 20314     1  0.09572  0.15139
[ bonds ]
20313 20315     1  0.09572  0.15139
[ bonds ]
20316 20317     1  0.09572  0.15139
[ bonds ]
20316 20318     1  0.09572  0.15139
[ bonds ]
20319 20320     1  0.09572  0.15139
[ bonds ]
20319 20321     1  0.09572  0.15139
[ bonds ]
20322 20323     1  0.09572  0.15139
[ bonds ]
20322 20324     1  0.09572  0.15139
[ bonds ]
20325 20326     1  0.09572  0.15139
[ bonds ]
20325 20327     1  0.09572  0.15139
[ bonds ]
20328 20329     1  0.09572  0.15139
[ bonds ]
20328 20330     1  0.09572  0.15139
[ bonds ]
20331 20332     1  0.09572  0.15139
[ bonds ]
20331 20333     1  0.09572  0.15139
[ bonds ]
20334 20335     1  0.09572  0.15139
[ bonds ]
20334 20336     1  0.09572  0.15139
[ bonds ]
20337 20338     1  0.09572  0.15139
[ bonds ]
20337 20339     1  0.09572  0.15139
[ bonds ]
20340 20341     1  0.09572  0.15139
[ bonds ]
20340 20342     1  0.09572  0.15139
[ bonds ]
20343 20344     1  0.09572  0.15139
[ bonds ]
20343 20345     1  0.09572  0.15139
[ bonds ]
20346 20347     1  0.09572  0.15139
[ bonds ]
20346 20348     1  0.09572  0.15139
[ bonds ]
20349 20350     1  0.09572  0.15139
[ bonds ]
20349 20351     1  0.09572  0.15139
[ bonds ]
20352 20353     1  0.09572  0.15139
[ bonds ]
20352 20354     1  0.09572  0.15139
[ bonds ]
20355 20356     1  0.09572  0.15139
[ bonds ]
20355 20357     1  0.09572  0.15139
[ bonds ]
20358 20359     1  0.09572  0.15139
[ bonds ]
20358 20360     1  0.09572  0.15139
[ bonds ]
20361 20362     1  0.09572  0.15139
[ bonds ]
20361 20363     1  0.09572  0.15139
[ bonds ]
20364 20365     1  0.09572  0.15139
[ bonds ]
20364 20366     1  0.09572  0.15139
[ bonds ]
20367 20368     1  0.09572  0.15139
[ bonds ]
20367 20369     1  0.09572  0.15139
[ bonds ]
20370 20371     1  0.09572  0.15139
[ bonds ]
20370 20372     1  0.09572  0.15139
[ bonds ]
20373 20374     1  0.09572  0.15139
[ bonds ]
20373 20375     1  0.09572  0.15139
[ bonds ]
20376 20377     1  0.09572  0.15139
[ bonds ]
20376 20378     1  0.09572  0.15139
[ bonds ]
20379 20380     1  0.09572  0.15139
[ bonds ]
20379 20381     1  0.09572  0.15139
[ bonds ]
20382 20383     1  0.09572  0.15139
[ bonds ]
20382 20384     1  0.09572  0.15139
[ bonds ]
20385 20386     1  0.09572  0.15139
[ bonds ]
20385 20387     1  0.09572  0.15139
[ bonds ]
20388 20389     1  0.09572  0.15139
[ bonds ]
20388 20390     1  0.09572  0.15139
[ bonds ]
20391 20392     1  0.09572  0.15139
[ bonds ]
20391 20393     1  0.09572  0.15139
[ bonds ]
20394 20395     1  0.09572  0.15139
[ bonds ]
20394 20396     1  0.09572  0.15139
[ bonds ]
20397 20398     1  0.09572  0.15139
[ bonds ]
20397 20399     1  0.09572  0.15139
[ bonds ]
20400 20401     1  0.09572  0.15139
[ bonds ]
20400 20402     1  0.09572  0.15139
[ bonds ]
20403 20404     1  0.09572  0.15139
[ bonds ]
20403 20405     1  0.09572  0.15139
[ bonds ]
20406 20407     1  0.09572  0.15139
[ bonds ]
20406 20408     1  0.09572  0.15139
[ bonds ]
20409 20410     1  0.09572  0.15139
[ bonds ]
20409 20411     1  0.09572  0.15139
[ bonds ]
20412 20413     1  0.09572  0.15139
[ bonds ]
20412 20414     1  0.09572  0.15139
[ bonds ]
20415 20416     1  0.09572  0.15139
[ bonds ]
20415 20417     1  0.09572  0.15139
[ bonds ]
20418 20419     1  0.09572  0.15139
[ bonds ]
20418 20420     1  0.09572  0.15139
[ bonds ]
20421 20422     1  0.09572  0.15139
[ bonds ]
20421 20423     1  0.09572  0.15139
[ bonds ]
20424 20425     1  0.09572  0.15139
[ bonds ]
20424 20426     1  0.09572  0.15139
[ bonds ]
20427 20428     1  0.09572  0.15139
[ bonds ]
20427 20429     1  0.09572  0.15139
[ bonds ]
20430 20431     1  0.09572  0.15139
[ bonds ]
20430 20432     1  0.09572  0.15139
[ bonds ]
20433 20434     1  0.09572  0.15139
[ bonds ]
20433 20435     1  0.09572  0.15139
[ bonds ]
20436 20437     1  0.09572  0.15139
[ bonds ]
20436 20438     1  0.09572  0.15139
[ bonds ]
20439 20440     1  0.09572  0.15139
[ bonds ]
20439 20441     1  0.09572  0.15139
[ bonds ]
20442 20443     1  0.09572  0.15139
[ bonds ]
20442 20444     1  0.09572  0.15139
[ bonds ]
20445 20446     1  0.09572  0.15139
[ bonds ]
20445 20447     1  0.09572  0.15139
[ bonds ]
20448 20449     1  0.09572  0.15139
[ bonds ]
20448 20450     1  0.09572  0.15139
[ bonds ]
20451 20452     1  0.09572  0.15139
[ bonds ]
20451 20453     1  0.09572  0.15139
[ bonds ]
20454 20455     1  0.09572  0.15139
[ bonds ]
20454 20456     1  0.09572  0.15139
[ bonds ]
20457 20458     1  0.09572  0.15139
[ bonds ]
20457 20459     1  0.09572  0.15139
[ bonds ]
20460 20461     1  0.09572  0.15139
[ bonds ]
20460 20462     1  0.09572  0.15139
[ bonds ]
20463 20464     1  0.09572  0.15139
[ bonds ]
20463 20465     1  0.09572  0.15139
[ bonds ]
20466 20467     1  0.09572  0.15139
[ bonds ]
20466 20468     1  0.09572  0.15139
[ bonds ]
20469 20470     1  0.09572  0.15139
[ bonds ]
20469 20471     1  0.09572  0.15139
[ bonds ]
20472 20473     1  0.09572  0.15139
[ bonds ]
20472 20474     1  0.09572  0.15139
[ bonds ]
20475 20476     1  0.09572  0.15139
[ bonds ]
20475 20477     1  0.09572  0.15139
[ bonds ]
20478 20479     1  0.09572  0.15139
[ bonds ]
20478 20480     1  0.09572  0.15139
[ bonds ]
20481 20482     1  0.09572  0.15139
[ bonds ]
20481 20483     1  0.09572  0.15139
[ bonds ]
20484 20485     1  0.09572  0.15139
[ bonds ]
20484 20486     1  0.09572  0.15139
[ bonds ]
20487 20488     1  0.09572  0.15139
[ bonds ]
20487 20489     1  0.09572  0.15139
[ bonds ]
20490 20491     1  0.09572  0.15139
[ bonds ]
20490 20492     1  0.09572  0.15139
[ bonds ]
20493 20494     1  0.09572  0.15139
[ bonds ]
20493 20495     1  0.09572  0.15139
[ bonds ]
20496 20497     1  0.09572  0.15139
[ bonds ]
20496 20498     1  0.09572  0.15139
[ bonds ]
20499 20500     1  0.09572  0.15139
[ bonds ]
20499 20501     1  0.09572  0.15139
[ bonds ]
20502 20503     1  0.09572  0.15139
[ bonds ]
20502 20504     1  0.09572  0.15139
[ bonds ]
20505 20506     1  0.09572  0.15139
[ bonds ]
20505 20507     1  0.09572  0.15139
[ bonds ]
20508 20509     1  0.09572  0.15139
[ bonds ]
20508 20510     1  0.09572  0.15139
[ bonds ]
20511 20512     1  0.09572  0.15139
[ bonds ]
20511 20513     1  0.09572  0.15139
[ bonds ]
20514 20515     1  0.09572  0.15139
[ bonds ]
20514 20516     1  0.09572  0.15139
[ bonds ]
20517 20518     1  0.09572  0.15139
[ bonds ]
20517 20519     1  0.09572  0.15139
[ bonds ]
20520 20521     1  0.09572  0.15139
[ bonds ]
20520 20522     1  0.09572  0.15139
[ bonds ]
20523 20524     1  0.09572  0.15139
[ bonds ]
20523 20525     1  0.09572  0.15139
[ bonds ]
20526 20527     1  0.09572  0.15139
[ bonds ]
20526 20528     1  0.09572  0.15139
[ bonds ]
20529 20530     1  0.09572  0.15139
[ bonds ]
20529 20531     1  0.09572  0.15139
[ bonds ]
20532 20533     1  0.09572  0.15139
[ bonds ]
20532 20534     1  0.09572  0.15139
[ bonds ]
20535 20536     1  0.09572  0.15139
[ bonds ]
20535 20537     1  0.09572  0.15139
[ bonds ]
20538 20539     1  0.09572  0.15139
[ bonds ]
20538 20540     1  0.09572  0.15139
[ bonds ]
20541 20542     1  0.09572  0.15139
[ bonds ]
20541 20543     1  0.09572  0.15139
[ bonds ]
20544 20545     1  0.09572  0.15139
[ bonds ]
20544 20546     1  0.09572  0.15139
[ bonds ]
20547 20548     1  0.09572  0.15139
[ bonds ]
20547 20549     1  0.09572  0.15139
[ bonds ]
20550 20551     1  0.09572  0.15139
[ bonds ]
20550 20552     1  0.09572  0.15139
[ bonds ]
20553 20554     1  0.09572  0.15139
[ bonds ]
20553 20555     1  0.09572  0.15139
[ bonds ]
20556 20557     1  0.09572  0.15139
[ bonds ]
20556 20558     1  0.09572  0.15139
[ bonds ]
20559 20560     1  0.09572  0.15139
[ bonds ]
20559 20561     1  0.09572  0.15139
[ bonds ]
20562 20563     1  0.09572  0.15139
[ bonds ]
20562 20564     1  0.09572  0.15139
[ bonds ]
20565 20566     1  0.09572  0.15139
[ bonds ]
20565 20567     1  0.09572  0.15139
[ bonds ]
20568 20569     1  0.09572  0.15139
[ bonds ]
20568 20570     1  0.09572  0.15139
[ bonds ]
20571 20572     1  0.09572  0.15139
[ bonds ]
20571 20573     1  0.09572  0.15139
[ bonds ]
20574 20575     1  0.09572  0.15139
[ bonds ]
20574 20576     1  0.09572  0.15139
[ bonds ]
20577 20578     1  0.09572  0.15139
[ bonds ]
20577 20579     1  0.09572  0.15139
[ bonds ]
20580 20581     1  0.09572  0.15139
[ bonds ]
20580 20582     1  0.09572  0.15139
[ bonds ]
20583 20584     1  0.09572  0.15139
[ bonds ]
20583 20585     1  0.09572  0.15139
[ bonds ]
20586 20587     1  0.09572  0.15139
[ bonds ]
20586 20588     1  0.09572  0.15139
[ bonds ]
20589 20590     1  0.09572  0.15139
[ bonds ]
20589 20591     1  0.09572  0.15139
[ bonds ]
20592 20593     1  0.09572  0.15139
[ bonds ]
20592 20594     1  0.09572  0.15139
[ bonds ]
20595 20596     1  0.09572  0.15139
[ bonds ]
20595 20597     1  0.09572  0.15139
[ bonds ]
20598 20599     1  0.09572  0.15139
[ bonds ]
20598 20600     1  0.09572  0.15139
[ bonds ]
20601 20602     1  0.09572  0.15139
[ bonds ]
20601 20603     1  0.09572  0.15139
[ bonds ]
20604 20605     1  0.09572  0.15139
[ bonds ]
20604 20606     1  0.09572  0.15139
[ bonds ]
20607 20608     1  0.09572  0.15139
[ bonds ]
20607 20609     1  0.09572  0.15139
[ bonds ]
20610 20611     1  0.09572  0.15139
[ bonds ]
20610 20612     1  0.09572  0.15139
[ bonds ]
20613 20614     1  0.09572  0.15139
[ bonds ]
20613 20615     1  0.09572  0.15139
[ bonds ]
20616 20617     1  0.09572  0.15139
[ bonds ]
20616 20618     1  0.09572  0.15139
[ bonds ]
20619 20620     1  0.09572  0.15139
[ bonds ]
20619 20621     1  0.09572  0.15139
[ bonds ]
20622 20623     1  0.09572  0.15139
[ bonds ]
20622 20624     1  0.09572  0.15139
[ bonds ]
20625 20626     1  0.09572  0.15139
[ bonds ]
20625 20627     1  0.09572  0.15139
[ bonds ]
20628 20629     1  0.09572  0.15139
[ bonds ]
20628 20630     1  0.09572  0.15139
[ bonds ]
20631 20632     1  0.09572  0.15139
[ bonds ]
20631 20633     1  0.09572  0.15139
[ bonds ]
20634 20635     1  0.09572  0.15139
[ bonds ]
20634 20636     1  0.09572  0.15139
[ bonds ]
20637 20638     1  0.09572  0.15139
[ bonds ]
20637 20639     1  0.09572  0.15139
[ bonds ]
20640 20641     1  0.09572  0.15139
[ bonds ]
20640 20642     1  0.09572  0.15139
[ bonds ]
20643 20644     1  0.09572  0.15139
[ bonds ]
20643 20645     1  0.09572  0.15139
[ bonds ]
20646 20647     1  0.09572  0.15139
[ bonds ]
20646 20648     1  0.09572  0.15139
[ bonds ]
20649 20650     1  0.09572  0.15139
[ bonds ]
20649 20651     1  0.09572  0.15139
[ bonds ]
20652 20653     1  0.09572  0.15139
[ bonds ]
20652 20654     1  0.09572  0.15139
[ bonds ]
20655 20656     1  0.09572  0.15139
[ bonds ]
20655 20657     1  0.09572  0.15139
[ bonds ]
20658 20659     1  0.09572  0.15139
[ bonds ]
20658 20660     1  0.09572  0.15139
[ bonds ]
20661 20662     1  0.09572  0.15139
[ bonds ]
20661 20663     1  0.09572  0.15139
[ bonds ]
20664 20665     1  0.09572  0.15139
[ bonds ]
20664 20666     1  0.09572  0.15139
[ bonds ]
20667 20668     1  0.09572  0.15139
[ bonds ]
20667 20669     1  0.09572  0.15139
[ bonds ]
20670 20671     1  0.09572  0.15139
[ bonds ]
20670 20672     1  0.09572  0.15139
[ bonds ]
20673 20674     1  0.09572  0.15139
[ bonds ]
20673 20675     1  0.09572  0.15139
[ bonds ]
20676 20677     1  0.09572  0.15139
[ bonds ]
20676 20678     1  0.09572  0.15139
[ bonds ]
20679 20680     1  0.09572  0.15139
[ bonds ]
20679 20681     1  0.09572  0.15139
[ bonds ]
20682 20683     1  0.09572  0.15139
[ bonds ]
20682 20684     1  0.09572  0.15139
[ bonds ]
20685 20686     1  0.09572  0.15139
[ bonds ]
20685 20687     1  0.09572  0.15139
[ bonds ]
20688 20689     1  0.09572  0.15139
[ bonds ]
20688 20690     1  0.09572  0.15139
[ bonds ]
20691 20692     1  0.09572  0.15139
[ bonds ]
20691 20693     1  0.09572  0.15139
[ bonds ]
20694 20695     1  0.09572  0.15139
[ bonds ]
20694 20696     1  0.09572  0.15139
[ bonds ]
20697 20698     1  0.09572  0.15139
[ bonds ]
20697 20699     1  0.09572  0.15139
[ bonds ]
20700 20701     1  0.09572  0.15139
[ bonds ]
20700 20702     1  0.09572  0.15139
[ bonds ]
20703 20704     1  0.09572  0.15139
[ bonds ]
20703 20705     1  0.09572  0.15139
[ bonds ]
20706 20707     1  0.09572  0.15139
[ bonds ]
20706 20708     1  0.09572  0.15139
[ bonds ]
20709 20710     1  0.09572  0.15139
[ bonds ]
20709 20711     1  0.09572  0.15139
[ bonds ]
20712 20713     1  0.09572  0.15139
[ bonds ]
20712 20714     1  0.09572  0.15139
[ bonds ]
20715 20716     1  0.09572  0.15139
[ bonds ]
20715 20717     1  0.09572  0.15139
[ bonds ]
20718 20719     1  0.09572  0.15139
[ bonds ]
20718 20720     1  0.09572  0.15139
[ bonds ]
20721 20722     1  0.09572  0.15139
[ bonds ]
20721 20723     1  0.09572  0.15139
[ bonds ]
20724 20725     1  0.09572  0.15139
[ bonds ]
20724 20726     1  0.09572  0.15139
[ bonds ]
20727 20728     1  0.09572  0.15139
[ bonds ]
20727 20729     1  0.09572  0.15139
[ bonds ]
20730 20731     1  0.09572  0.15139
[ bonds ]
20730 20732     1  0.09572  0.15139
[ bonds ]
20733 20734     1  0.09572  0.15139
[ bonds ]
20733 20735     1  0.09572  0.15139
[ bonds ]
20736 20737     1  0.09572  0.15139
[ bonds ]
20736 20738     1  0.09572  0.15139
[ bonds ]
20739 20740     1  0.09572  0.15139
[ bonds ]
20739 20741     1  0.09572  0.15139
[ bonds ]
20742 20743     1  0.09572  0.15139
[ bonds ]
20742 20744     1  0.09572  0.15139
[ bonds ]
20745 20746     1  0.09572  0.15139
[ bonds ]
20745 20747     1  0.09572  0.15139
[ bonds ]
20748 20749     1  0.09572  0.15139
[ bonds ]
20748 20750     1  0.09572  0.15139
[ bonds ]
20751 20752     1  0.09572  0.15139
[ bonds ]
20751 20753     1  0.09572  0.15139
[ bonds ]
20754 20755     1  0.09572  0.15139
[ bonds ]
20754 20756     1  0.09572  0.15139
[ bonds ]
20757 20758     1  0.09572  0.15139
[ bonds ]
20757 20759     1  0.09572  0.15139
[ bonds ]
20760 20761     1  0.09572  0.15139
[ bonds ]
20760 20762     1  0.09572  0.15139
[ bonds ]
20763 20764     1  0.09572  0.15139
[ bonds ]
20763 20765     1  0.09572  0.15139
[ bonds ]
20766 20767     1  0.09572  0.15139
[ bonds ]
20766 20768     1  0.09572  0.15139
[ bonds ]
20769 20770     1  0.09572  0.15139
[ bonds ]
20769 20771     1  0.09572  0.15139
[ bonds ]
20772 20773     1  0.09572  0.15139
[ bonds ]
20772 20774     1  0.09572  0.15139
[ bonds ]
20775 20776     1  0.09572  0.15139
[ bonds ]
20775 20777     1  0.09572  0.15139
[ bonds ]
20778 20779     1  0.09572  0.15139
[ bonds ]
20778 20780     1  0.09572  0.15139
[ bonds ]
20781 20782     1  0.09572  0.15139
[ bonds ]
20781 20783     1  0.09572  0.15139
[ bonds ]
20784 20785     1  0.09572  0.15139
[ bonds ]
20784 20786     1  0.09572  0.15139
[ bonds ]
20787 20788     1  0.09572  0.15139
[ bonds ]
20787 20789     1  0.09572  0.15139
[ bonds ]
20790 20791     1  0.09572  0.15139
[ bonds ]
20790 20792     1  0.09572  0.15139
[ bonds ]
20793 20794     1  0.09572  0.15139
[ bonds ]
20793 20795     1  0.09572  0.15139
[ bonds ]
20796 20797     1  0.09572  0.15139
[ bonds ]
20796 20798     1  0.09572  0.15139
[ bonds ]
20799 20800     1  0.09572  0.15139
[ bonds ]
20799 20801     1  0.09572  0.15139
[ bonds ]
20802 20803     1  0.09572  0.15139
[ bonds ]
20802 20804     1  0.09572  0.15139
[ bonds ]
20805 20806     1  0.09572  0.15139
[ bonds ]
20805 20807     1  0.09572  0.15139
[ bonds ]
20808 20809     1  0.09572  0.15139
[ bonds ]
20808 20810     1  0.09572  0.15139
[ bonds ]
20811 20812     1  0.09572  0.15139
[ bonds ]
20811 20813     1  0.09572  0.15139
[ bonds ]
20814 20815     1  0.09572  0.15139
[ bonds ]
20814 20816     1  0.09572  0.15139
[ bonds ]
20817 20818     1  0.09572  0.15139
[ bonds ]
20817 20819     1  0.09572  0.15139
[ bonds ]
20820 20821     1  0.09572  0.15139
[ bonds ]
20820 20822     1  0.09572  0.15139
[ bonds ]
20823 20824     1  0.09572  0.15139
[ bonds ]
20823 20825     1  0.09572  0.15139
[ bonds ]
20826 20827     1  0.09572  0.15139
[ bonds ]
20826 20828     1  0.09572  0.15139
[ bonds ]
20829 20830     1  0.09572  0.15139
[ bonds ]
20829 20831     1  0.09572  0.15139
[ bonds ]
20832 20833     1  0.09572  0.15139
[ bonds ]
20832 20834     1  0.09572  0.15139
[ bonds ]
20835 20836     1  0.09572  0.15139
[ bonds ]
20835 20837     1  0.09572  0.15139
[ bonds ]
20838 20839     1  0.09572  0.15139
[ bonds ]
20838 20840     1  0.09572  0.15139
[ bonds ]
20841 20842     1  0.09572  0.15139
[ bonds ]
20841 20843     1  0.09572  0.15139
[ bonds ]
20844 20845     1  0.09572  0.15139
[ bonds ]
20844 20846     1  0.09572  0.15139
[ bonds ]
20847 20848     1  0.09572  0.15139
[ bonds ]
20847 20849     1  0.09572  0.15139
[ bonds ]
20850 20851     1  0.09572  0.15139
[ bonds ]
20850 20852     1  0.09572  0.15139
[ bonds ]
20853 20854     1  0.09572  0.15139
[ bonds ]
20853 20855     1  0.09572  0.15139
[ bonds ]
20856 20857     1  0.09572  0.15139
[ bonds ]
20856 20858     1  0.09572  0.15139
[ bonds ]
20859 20860     1  0.09572  0.15139
[ bonds ]
20859 20861     1  0.09572  0.15139
[ bonds ]
20862 20863     1  0.09572  0.15139
[ bonds ]
20862 20864     1  0.09572  0.15139
[ bonds ]
20865 20866     1  0.09572  0.15139
[ bonds ]
20865 20867     1  0.09572  0.15139
[ bonds ]
20868 20869     1  0.09572  0.15139
[ bonds ]
20868 20870     1  0.09572  0.15139
[ bonds ]
20871 20872     1  0.09572  0.15139
[ bonds ]
20871 20873     1  0.09572  0.15139
[ bonds ]
20874 20875     1  0.09572  0.15139
[ bonds ]
20874 20876     1  0.09572  0.15139
[ bonds ]
20877 20878     1  0.09572  0.15139
[ bonds ]
20877 20879     1  0.09572  0.15139
[ bonds ]
20880 20881     1  0.09572  0.15139
[ bonds ]
20880 20882     1  0.09572  0.15139
[ bonds ]
20883 20884     1  0.09572  0.15139
[ bonds ]
20883 20885     1  0.09572  0.15139
[ bonds ]
20886 20887     1  0.09572  0.15139
[ bonds ]
20886 20888     1  0.09572  0.15139
[ bonds ]
20889 20890     1  0.09572  0.15139
[ bonds ]
20889 20891     1  0.09572  0.15139
[ bonds ]
20892 20893     1  0.09572  0.15139
[ bonds ]
20892 20894     1  0.09572  0.15139
[ bonds ]
20895 20896     1  0.09572  0.15139
[ bonds ]
20895 20897     1  0.09572  0.15139
[ bonds ]
20898 20899     1  0.09572  0.15139
[ bonds ]
20898 20900     1  0.09572  0.15139
[ bonds ]
20901 20902     1  0.09572  0.15139
[ bonds ]
20901 20903     1  0.09572  0.15139
[ bonds ]
20904 20905     1  0.09572  0.15139
[ bonds ]
20904 20906     1  0.09572  0.15139
[ bonds ]
20907 20908     1  0.09572  0.15139
[ bonds ]
20907 20909     1  0.09572  0.15139
[ bonds ]
20910 20911     1  0.09572  0.15139
[ bonds ]
20910 20912     1  0.09572  0.15139
[ bonds ]
20913 20914     1  0.09572  0.15139
[ bonds ]
20913 20915     1  0.09572  0.15139
[ bonds ]
20916 20917     1  0.09572  0.15139
[ bonds ]
20916 20918     1  0.09572  0.15139
[ bonds ]
20919 20920     1  0.09572  0.15139
[ bonds ]
20919 20921     1  0.09572  0.15139
[ bonds ]
20922 20923     1  0.09572  0.15139
[ bonds ]
20922 20924     1  0.09572  0.15139
[ bonds ]
20925 20926     1  0.09572  0.15139
[ bonds ]
20925 20927     1  0.09572  0.15139
[ bonds ]
20928 20929     1  0.09572  0.15139
[ bonds ]
20928 20930     1  0.09572  0.15139
[ bonds ]
20931 20932     1  0.09572  0.15139
[ bonds ]
20931 20933     1  0.09572  0.15139
[ bonds ]
20934 20935     1  0.09572  0.15139
[ bonds ]
20934 20936     1  0.09572  0.15139
[ bonds ]
20937 20938     1  0.09572  0.15139
[ bonds ]
20937 20939     1  0.09572  0.15139
[ bonds ]
20940 20941     1  0.09572  0.15139
[ bonds ]
20940 20942     1  0.09572  0.15139
[ bonds ]
20943 20944     1  0.09572  0.15139
[ bonds ]
20943 20945     1  0.09572  0.15139
[ bonds ]
20946 20947     1  0.09572  0.15139
[ bonds ]
20946 20948     1  0.09572  0.15139
[ bonds ]
20949 20950     1  0.09572  0.15139
[ bonds ]
20949 20951     1  0.09572  0.15139
[ bonds ]
20952 20953     1  0.09572  0.15139
[ bonds ]
20952 20954     1  0.09572  0.15139
[ bonds ]
20955 20956     1  0.09572  0.15139
[ bonds ]
20955 20957     1  0.09572  0.15139
[ bonds ]
20958 20959     1  0.09572  0.15139
[ bonds ]
20958 20960     1  0.09572  0.15139
[ bonds ]
20961 20962     1  0.09572  0.15139
[ bonds ]
20961 20963     1  0.09572  0.15139
[ bonds ]
20964 20965     1  0.09572  0.15139
[ bonds ]
20964 20966     1  0.09572  0.15139
[ bonds ]
20967 20968     1  0.09572  0.15139
[ bonds ]
20967 20969     1  0.09572  0.15139
[ bonds ]
20970 20971     1  0.09572  0.15139
[ bonds ]
20970 20972     1  0.09572  0.15139
[ bonds ]
20973 20974     1  0.09572  0.15139
[ bonds ]
20973 20975     1  0.09572  0.15139
[ bonds ]
20976 20977     1  0.09572  0.15139
[ bonds ]
20976 20978     1  0.09572  0.15139
[ bonds ]
20979 20980     1  0.09572  0.15139
[ bonds ]
20979 20981     1  0.09572  0.15139
[ bonds ]
20982 20983     1  0.09572  0.15139
[ bonds ]
20982 20984     1  0.09572  0.15139
[ bonds ]
20985 20986     1  0.09572  0.15139
[ bonds ]
20985 20987     1  0.09572  0.15139
[ bonds ]
20988 20989     1  0.09572  0.15139
[ bonds ]
20988 20990     1  0.09572  0.15139
[ bonds ]
20991 20992     1  0.09572  0.15139
[ bonds ]
20991 20993     1  0.09572  0.15139
[ bonds ]
20994 20995     1  0.09572  0.15139
[ bonds ]
20994 20996     1  0.09572  0.15139
[ bonds ]
20997 20998     1  0.09572  0.15139
[ bonds ]
20997 20999     1  0.09572  0.15139
[ bonds ]
21000 21001     1  0.09572  0.15139
[ bonds ]
21000 21002     1  0.09572  0.15139
[ bonds ]
21003 21004     1  0.09572  0.15139
[ bonds ]
21003 21005     1  0.09572  0.15139
[ bonds ]
21006 21007     1  0.09572  0.15139
[ bonds ]
21006 21008     1  0.09572  0.15139
[ bonds ]
21009 21010     1  0.09572  0.15139
[ bonds ]
21009 21011     1  0.09572  0.15139
[ bonds ]
21012 21013     1  0.09572  0.15139
[ bonds ]
21012 21014     1  0.09572  0.15139
[ bonds ]
21015 21016     1  0.09572  0.15139
[ bonds ]
21015 21017     1  0.09572  0.15139
[ bonds ]
21018 21019     1  0.09572  0.15139
[ bonds ]
21018 21020     1  0.09572  0.15139
[ bonds ]
21021 21022     1  0.09572  0.15139
[ bonds ]
21021 21023     1  0.09572  0.15139
[ bonds ]
21024 21025     1  0.09572  0.15139
[ bonds ]
21024 21026     1  0.09572  0.15139
[ bonds ]
21027 21028     1  0.09572  0.15139
[ bonds ]
21027 21029     1  0.09572  0.15139
[ bonds ]
21030 21031     1  0.09572  0.15139
[ bonds ]
21030 21032     1  0.09572  0.15139
[ bonds ]
21033 21034     1  0.09572  0.15139
[ bonds ]
21033 21035     1  0.09572  0.15139
[ bonds ]
21036 21037     1  0.09572  0.15139
[ bonds ]
21036 21038     1  0.09572  0.15139
[ bonds ]
21039 21040     1  0.09572  0.15139
[ bonds ]
21039 21041     1  0.09572  0.15139
[ bonds ]
21042 21043     1  0.09572  0.15139
[ bonds ]
21042 21044     1  0.09572  0.15139
[ bonds ]
21045 21046     1  0.09572  0.15139
[ bonds ]
21045 21047     1  0.09572  0.15139
[ bonds ]
21048 21049     1  0.09572  0.15139
[ bonds ]
21048 21050     1  0.09572  0.15139
[ bonds ]
21051 21052     1  0.09572  0.15139
[ bonds ]
21051 21053     1  0.09572  0.15139
[ bonds ]
21054 21055     1  0.09572  0.15139
[ bonds ]
21054 21056     1  0.09572  0.15139
[ bonds ]
21057 21058     1  0.09572  0.15139
[ bonds ]
21057 21059     1  0.09572  0.15139
[ bonds ]
21060 21061     1  0.09572  0.15139
[ bonds ]
21060 21062     1  0.09572  0.15139
[ bonds ]
21063 21064     1  0.09572  0.15139
[ bonds ]
21063 21065     1  0.09572  0.15139
[ bonds ]
21066 21067     1  0.09572  0.15139
[ bonds ]
21066 21068     1  0.09572  0.15139
[ bonds ]
21069 21070     1  0.09572  0.15139
[ bonds ]
21069 21071     1  0.09572  0.15139
[ bonds ]
21072 21073     1  0.09572  0.15139
[ bonds ]
21072 21074     1  0.09572  0.15139
[ bonds ]
21075 21076     1  0.09572  0.15139
[ bonds ]
21075 21077     1  0.09572  0.15139
[ bonds ]
21078 21079     1  0.09572  0.15139
[ bonds ]
21078 21080     1  0.09572  0.15139
[ bonds ]
21081 21082     1  0.09572  0.15139
[ bonds ]
21081 21083     1  0.09572  0.15139
[ bonds ]
21084 21085     1  0.09572  0.15139
[ bonds ]
21084 21086     1  0.09572  0.15139
[ bonds ]
21087 21088     1  0.09572  0.15139
[ bonds ]
21087 21089     1  0.09572  0.15139
[ bonds ]
21090 21091     1  0.09572  0.15139
[ bonds ]
21090 21092     1  0.09572  0.15139
[ bonds ]
21093 21094     1  0.09572  0.15139
[ bonds ]
21093 21095     1  0.09572  0.15139
[ bonds ]
21096 21097     1  0.09572  0.15139
[ bonds ]
21096 21098     1  0.09572  0.15139
[ bonds ]
21099 21100     1  0.09572  0.15139
[ bonds ]
21099 21101     1  0.09572  0.15139
[ bonds ]
21102 21103     1  0.09572  0.15139
[ bonds ]
21102 21104     1  0.09572  0.15139
[ bonds ]
21105 21106     1  0.09572  0.15139
[ bonds ]
21105 21107     1  0.09572  0.15139
[ bonds ]
21108 21109     1  0.09572  0.15139
[ bonds ]
21108 21110     1  0.09572  0.15139
[ bonds ]
21111 21112     1  0.09572  0.15139
[ bonds ]
21111 21113     1  0.09572  0.15139
[ bonds ]
21114 21115     1  0.09572  0.15139
[ bonds ]
21114 21116     1  0.09572  0.15139
[ bonds ]
21117 21118     1  0.09572  0.15139
[ bonds ]
21117 21119     1  0.09572  0.15139
[ bonds ]
21120 21121     1  0.09572  0.15139
[ bonds ]
21120 21122     1  0.09572  0.15139
[ bonds ]
21123 21124     1  0.09572  0.15139
[ bonds ]
21123 21125     1  0.09572  0.15139
[ bonds ]
21126 21127     1  0.09572  0.15139
[ bonds ]
21126 21128     1  0.09572  0.15139
[ bonds ]
21129 21130     1  0.09572  0.15139
[ bonds ]
21129 21131     1  0.09572  0.15139
[ bonds ]
21132 21133     1  0.09572  0.15139
[ bonds ]
21132 21134     1  0.09572  0.15139
[ bonds ]
21135 21136     1  0.09572  0.15139
[ bonds ]
21135 21137     1  0.09572  0.15139
[ bonds ]
21138 21139     1  0.09572  0.15139
[ bonds ]
21138 21140     1  0.09572  0.15139
[ bonds ]
21141 21142     1  0.09572  0.15139
[ bonds ]
21141 21143     1  0.09572  0.15139
[ bonds ]
21144 21145     1  0.09572  0.15139
[ bonds ]
21144 21146     1  0.09572  0.15139
[ bonds ]
21147 21148     1  0.09572  0.15139
[ bonds ]
21147 21149     1  0.09572  0.15139
[ bonds ]
21150 21151     1  0.09572  0.15139
[ bonds ]
21150 21152     1  0.09572  0.15139
[ bonds ]
21153 21154     1  0.09572  0.15139
[ bonds ]
21153 21155     1  0.09572  0.15139
[ bonds ]
21156 21157     1  0.09572  0.15139
[ bonds ]
21156 21158     1  0.09572  0.15139
[ bonds ]
21159 21160     1  0.09572  0.15139
[ bonds ]
21159 21161     1  0.09572  0.15139
[ bonds ]
21162 21163     1  0.09572  0.15139
[ bonds ]
21162 21164     1  0.09572  0.15139
[ bonds ]
21165 21166     1  0.09572  0.15139
[ bonds ]
21165 21167     1  0.09572  0.15139
[ bonds ]
21168 21169     1  0.09572  0.15139
[ bonds ]
21168 21170     1  0.09572  0.15139
[ bonds ]
21171 21172     1  0.09572  0.15139
[ bonds ]
21171 21173     1  0.09572  0.15139
[ bonds ]
21174 21175     1  0.09572  0.15139
[ bonds ]
21174 21176     1  0.09572  0.15139
[ bonds ]
21177 21178     1  0.09572  0.15139
[ bonds ]
21177 21179     1  0.09572  0.15139
[ bonds ]
21180 21181     1  0.09572  0.15139
[ bonds ]
21180 21182     1  0.09572  0.15139
[ bonds ]
21183 21184     1  0.09572  0.15139
[ bonds ]
21183 21185     1  0.09572  0.15139
[ bonds ]
21186 21187     1  0.09572  0.15139
[ bonds ]
21186 21188     1  0.09572  0.15139
[ bonds ]
21189 21190     1  0.09572  0.15139
[ bonds ]
21189 21191     1  0.09572  0.15139
[ bonds ]
21192 21193     1  0.09572  0.15139
[ bonds ]
21192 21194     1  0.09572  0.15139
[ bonds ]
21195 21196     1  0.09572  0.15139
[ bonds ]
21195 21197     1  0.09572  0.15139
[ bonds ]
21198 21199     1  0.09572  0.15139
[ bonds ]
21198 21200     1  0.09572  0.15139
[ bonds ]
21201 21202     1  0.09572  0.15139
[ bonds ]
21201 21203     1  0.09572  0.15139
[ bonds ]
21204 21205     1  0.09572  0.15139
[ bonds ]
21204 21206     1  0.09572  0.15139
[ bonds ]
21207 21208     1  0.09572  0.15139
[ bonds ]
21207 21209     1  0.09572  0.15139
[ bonds ]
21210 21211     1  0.09572  0.15139
[ bonds ]
21210 21212     1  0.09572  0.15139
[ bonds ]
21213 21214     1  0.09572  0.15139
[ bonds ]
21213 21215     1  0.09572  0.15139
[ bonds ]
21216 21217     1  0.09572  0.15139
[ bonds ]
21216 21218     1  0.09572  0.15139
[ bonds ]
21219 21220     1  0.09572  0.15139
[ bonds ]
21219 21221     1  0.09572  0.15139
[ bonds ]
21222 21223     1  0.09572  0.15139
[ bonds ]
21222 21224     1  0.09572  0.15139
[ bonds ]
21225 21226     1  0.09572  0.15139
[ bonds ]
21225 21227     1  0.09572  0.15139
[ bonds ]
21228 21229     1  0.09572  0.15139
[ bonds ]
21228 21230     1  0.09572  0.15139
[ bonds ]
21231 21232     1  0.09572  0.15139
[ bonds ]
21231 21233     1  0.09572  0.15139
[ bonds ]
21234 21235     1  0.09572  0.15139
[ bonds ]
21234 21236     1  0.09572  0.15139
[ bonds ]
21237 21238     1  0.09572  0.15139
[ bonds ]
21237 21239     1  0.09572  0.15139
[ bonds ]
21240 21241     1  0.09572  0.15139
[ bonds ]
21240 21242     1  0.09572  0.15139
[ bonds ]
21243 21244     1  0.09572  0.15139
[ bonds ]
21243 21245     1  0.09572  0.15139
[ bonds ]
21246 21247     1  0.09572  0.15139
[ bonds ]
21246 21248     1  0.09572  0.15139
[ bonds ]
21249 21250     1  0.09572  0.15139
[ bonds ]
21249 21251     1  0.09572  0.15139
[ bonds ]
21252 21253     1  0.09572  0.15139
[ bonds ]
21252 21254     1  0.09572  0.15139
[ bonds ]
21255 21256     1  0.09572  0.15139
[ bonds ]
21255 21257     1  0.09572  0.15139
[ bonds ]
21258 21259     1  0.09572  0.15139
[ bonds ]
21258 21260     1  0.09572  0.15139
[ bonds ]
21261 21262     1  0.09572  0.15139
[ bonds ]
21261 21263     1  0.09572  0.15139
[ bonds ]
21264 21265     1  0.09572  0.15139
[ bonds ]
21264 21266     1  0.09572  0.15139
[ bonds ]
21267 21268     1  0.09572  0.15139
[ bonds ]
21267 21269     1  0.09572  0.15139
[ bonds ]
21270 21271     1  0.09572  0.15139
[ bonds ]
21270 21272     1  0.09572  0.15139
[ bonds ]
21273 21274     1  0.09572  0.15139
[ bonds ]
21273 21275     1  0.09572  0.15139
[ bonds ]
21276 21277     1  0.09572  0.15139
[ bonds ]
21276 21278     1  0.09572  0.15139
[ bonds ]
21279 21280     1  0.09572  0.15139
[ bonds ]
21279 21281     1  0.09572  0.15139
[ bonds ]
21282 21283     1  0.09572  0.15139
[ bonds ]
21282 21284     1  0.09572  0.15139
[ bonds ]
21285 21286     1  0.09572  0.15139
[ bonds ]
21285 21287     1  0.09572  0.15139
[ bonds ]
21288 21289     1  0.09572  0.15139
[ bonds ]
21288 21290     1  0.09572  0.15139
[ bonds ]
21291 21292     1  0.09572  0.15139
[ bonds ]
21291 21293     1  0.09572  0.15139
[ bonds ]
21294 21295     1  0.09572  0.15139
[ bonds ]
21294 21296     1  0.09572  0.15139
[ bonds ]
21297 21298     1  0.09572  0.15139
[ bonds ]
21297 21299     1  0.09572  0.15139
[ bonds ]
21300 21301     1  0.09572  0.15139
[ bonds ]
21300 21302     1  0.09572  0.15139
[ bonds ]
21303 21304     1  0.09572  0.15139
[ bonds ]
21303 21305     1  0.09572  0.15139
[ bonds ]
21306 21307     1  0.09572  0.15139
[ bonds ]
21306 21308     1  0.09572  0.15139
[ bonds ]
21309 21310     1  0.09572  0.15139
[ bonds ]
21309 21311     1  0.09572  0.15139
[ bonds ]
21312 21313     1  0.09572  0.15139
[ bonds ]
21312 21314     1  0.09572  0.15139
[ bonds ]
21315 21316     1  0.09572  0.15139
[ bonds ]
21315 21317     1  0.09572  0.15139
[ bonds ]
21318 21319     1  0.09572  0.15139
[ bonds ]
21318 21320     1  0.09572  0.15139
[ bonds ]
21321 21322     1  0.09572  0.15139
[ bonds ]
21321 21323     1  0.09572  0.15139
[ bonds ]
21324 21325     1  0.09572  0.15139
[ bonds ]
21324 21326     1  0.09572  0.15139
[ bonds ]
21327 21328     1  0.09572  0.15139
[ bonds ]
21327 21329     1  0.09572  0.15139
[ bonds ]
21330 21331     1  0.09572  0.15139
[ bonds ]
21330 21332     1  0.09572  0.15139
[ bonds ]
21333 21334     1  0.09572  0.15139
[ bonds ]
21333 21335     1  0.09572  0.15139
[ bonds ]
21336 21337     1  0.09572  0.15139
[ bonds ]
21336 21338     1  0.09572  0.15139
[ bonds ]
21339 21340     1  0.09572  0.15139
[ bonds ]
21339 21341     1  0.09572  0.15139
[ bonds ]
21342 21343     1  0.09572  0.15139
[ bonds ]
21342 21344     1  0.09572  0.15139
[ bonds ]
21345 21346     1  0.09572  0.15139
[ bonds ]
21345 21347     1  0.09572  0.15139
[ bonds ]
21348 21349     1  0.09572  0.15139
[ bonds ]
21348 21350     1  0.09572  0.15139
[ bonds ]
21351 21352     1  0.09572  0.15139
[ bonds ]
21351 21353     1  0.09572  0.15139
[ bonds ]
21354 21355     1  0.09572  0.15139
[ bonds ]
21354 21356     1  0.09572  0.15139
[ bonds ]
21357 21358     1  0.09572  0.15139
[ bonds ]
21357 21359     1  0.09572  0.15139
[ bonds ]
21360 21361     1  0.09572  0.15139
[ bonds ]
21360 21362     1  0.09572  0.15139
[ bonds ]
21363 21364     1  0.09572  0.15139
[ bonds ]
21363 21365     1  0.09572  0.15139
[ bonds ]
21366 21367     1  0.09572  0.15139
[ bonds ]
21366 21368     1  0.09572  0.15139
[ bonds ]
21369 21370     1  0.09572  0.15139
[ bonds ]
21369 21371     1  0.09572  0.15139
[ bonds ]
21372 21373     1  0.09572  0.15139
[ bonds ]
21372 21374     1  0.09572  0.15139
[ bonds ]
21375 21376     1  0.09572  0.15139
[ bonds ]
21375 21377     1  0.09572  0.15139
[ bonds ]
21378 21379     1  0.09572  0.15139
[ bonds ]
21378 21380     1  0.09572  0.15139
[ bonds ]
21381 21382     1  0.09572  0.15139
[ bonds ]
21381 21383     1  0.09572  0.15139
[ bonds ]
21384 21385     1  0.09572  0.15139
[ bonds ]
21384 21386     1  0.09572  0.15139
[ bonds ]
21387 21388     1  0.09572  0.15139
[ bonds ]
21387 21389     1  0.09572  0.15139
[ bonds ]
21390 21391     1  0.09572  0.15139
[ bonds ]
21390 21392     1  0.09572  0.15139
[ bonds ]
21393 21394     1  0.09572  0.15139
[ bonds ]
21393 21395     1  0.09572  0.15139
[ bonds ]
21396 21397     1  0.09572  0.15139
[ bonds ]
21396 21398     1  0.09572  0.15139
[ bonds ]
21399 21400     1  0.09572  0.15139
[ bonds ]
21399 21401     1  0.09572  0.15139
[ bonds ]
21402 21403     1  0.09572  0.15139
[ bonds ]
21402 21404     1  0.09572  0.15139
[ bonds ]
21405 21406     1  0.09572  0.15139
[ bonds ]
21405 21407     1  0.09572  0.15139
[ bonds ]
21408 21409     1  0.09572  0.15139
[ bonds ]
21408 21410     1  0.09572  0.15139
[ bonds ]
21411 21412     1  0.09572  0.15139
[ bonds ]
21411 21413     1  0.09572  0.15139
[ bonds ]
21414 21415     1  0.09572  0.15139
[ bonds ]
21414 21416     1  0.09572  0.15139
[ bonds ]
21417 21418     1  0.09572  0.15139
[ bonds ]
21417 21419     1  0.09572  0.15139
[ bonds ]
21420 21421     1  0.09572  0.15139
[ bonds ]
21420 21422     1  0.09572  0.15139
[ bonds ]
21423 21424     1  0.09572  0.15139
[ bonds ]
21423 21425     1  0.09572  0.15139
[ bonds ]
21426 21427     1  0.09572  0.15139
[ bonds ]
21426 21428     1  0.09572  0.15139
[ bonds ]
21429 21430     1  0.09572  0.15139
[ bonds ]
21429 21431     1  0.09572  0.15139
[ bonds ]
21432 21433     1  0.09572  0.15139
[ bonds ]
21432 21434     1  0.09572  0.15139
[ bonds ]
21435 21436     1  0.09572  0.15139
[ bonds ]
21435 21437     1  0.09572  0.15139
[ bonds ]
21438 21439     1  0.09572  0.15139
[ bonds ]
21438 21440     1  0.09572  0.15139
[ bonds ]
21441 21442     1  0.09572  0.15139
[ bonds ]
21441 21443     1  0.09572  0.15139
[ bonds ]
21444 21445     1  0.09572  0.15139
[ bonds ]
21444 21446     1  0.09572  0.15139
[ bonds ]
21447 21448     1  0.09572  0.15139
[ bonds ]
21447 21449     1  0.09572  0.15139
[ bonds ]
21450 21451     1  0.09572  0.15139
[ bonds ]
21450 21452     1  0.09572  0.15139
[ bonds ]
21453 21454     1  0.09572  0.15139
[ bonds ]
21453 21455     1  0.09572  0.15139
[ bonds ]
21456 21457     1  0.09572  0.15139
[ bonds ]
21456 21458     1  0.09572  0.15139
[ bonds ]
21459 21460     1  0.09572  0.15139
[ bonds ]
21459 21461     1  0.09572  0.15139
[ bonds ]
21462 21463     1  0.09572  0.15139
[ bonds ]
21462 21464     1  0.09572  0.15139
[ bonds ]
21465 21466     1  0.09572  0.15139
[ bonds ]
21465 21467     1  0.09572  0.15139
[ bonds ]
21468 21469     1  0.09572  0.15139
[ bonds ]
21468 21470     1  0.09572  0.15139
[ bonds ]
21471 21472     1  0.09572  0.15139
[ bonds ]
21471 21473     1  0.09572  0.15139
[ bonds ]
21474 21475     1  0.09572  0.15139
[ bonds ]
21474 21476     1  0.09572  0.15139
[ bonds ]
21477 21478     1  0.09572  0.15139
[ bonds ]
21477 21479     1  0.09572  0.15139
[ bonds ]
21480 21481     1  0.09572  0.15139
[ bonds ]
21480 21482     1  0.09572  0.15139
[ bonds ]
21483 21484     1  0.09572  0.15139
[ bonds ]
21483 21485     1  0.09572  0.15139
[ bonds ]
21486 21487     1  0.09572  0.15139
[ bonds ]
21486 21488     1  0.09572  0.15139
[ bonds ]
21489 21490     1  0.09572  0.15139
[ bonds ]
21489 21491     1  0.09572  0.15139
[ bonds ]
21492 21493     1  0.09572  0.15139
[ bonds ]
21492 21494     1  0.09572  0.15139
[ bonds ]
21495 21496     1  0.09572  0.15139
[ bonds ]
21495 21497     1  0.09572  0.15139
[ bonds ]
21498 21499     1  0.09572  0.15139
[ bonds ]
21498 21500     1  0.09572  0.15139
[ bonds ]
21501 21502     1  0.09572  0.15139
[ bonds ]
21501 21503     1  0.09572  0.15139
[ bonds ]
21504 21505     1  0.09572  0.15139
[ bonds ]
21504 21506     1  0.09572  0.15139
[ bonds ]
21507 21508     1  0.09572  0.15139
[ bonds ]
21507 21509     1  0.09572  0.15139
[ bonds ]
21510 21511     1  0.09572  0.15139
[ bonds ]
21510 21512     1  0.09572  0.15139
[ bonds ]
21513 21514     1  0.09572  0.15139
[ bonds ]
21513 21515     1  0.09572  0.15139
[ bonds ]
21516 21517     1  0.09572  0.15139
[ bonds ]
21516 21518     1  0.09572  0.15139
[ bonds ]
21519 21520     1  0.09572  0.15139
[ bonds ]
21519 21521     1  0.09572  0.15139
[ bonds ]
21522 21523     1  0.09572  0.15139
[ bonds ]
21522 21524     1  0.09572  0.15139
[ bonds ]
21525 21526     1  0.09572  0.15139
[ bonds ]
21525 21527     1  0.09572  0.15139
[ bonds ]
21528 21529     1  0.09572  0.15139
[ bonds ]
21528 21530     1  0.09572  0.15139
[ bonds ]
21531 21532     1  0.09572  0.15139
[ bonds ]
21531 21533     1  0.09572  0.15139
[ bonds ]
21534 21535     1  0.09572  0.15139
[ bonds ]
21534 21536     1  0.09572  0.15139
[ bonds ]
21537 21538     1  0.09572  0.15139
[ bonds ]
21537 21539     1  0.09572  0.15139
[ bonds ]
21540 21541     1  0.09572  0.15139
[ bonds ]
21540 21542     1  0.09572  0.15139
[ bonds ]
21543 21544     1  0.09572  0.15139
[ bonds ]
21543 21545     1  0.09572  0.15139
[ bonds ]
21546 21547     1  0.09572  0.15139
[ bonds ]
21546 21548     1  0.09572  0.15139
[ bonds ]
21549 21550     1  0.09572  0.15139
[ bonds ]
21549 21551     1  0.09572  0.15139
[ bonds ]
21552 21553     1  0.09572  0.15139
[ bonds ]
21552 21554     1  0.09572  0.15139
[ bonds ]
21555 21556     1  0.09572  0.15139
[ bonds ]
21555 21557     1  0.09572  0.15139
[ bonds ]
21558 21559     1  0.09572  0.15139
[ bonds ]
21558 21560     1  0.09572  0.15139
[ bonds ]
21561 21562     1  0.09572  0.15139
[ bonds ]
21561 21563     1  0.09572  0.15139
[ bonds ]
21564 21565     1  0.09572  0.15139
[ bonds ]
21564 21566     1  0.09572  0.15139
[ bonds ]
21567 21568     1  0.09572  0.15139
[ bonds ]
21567 21569     1  0.09572  0.15139
[ bonds ]
21570 21571     1  0.09572  0.15139
[ bonds ]
21570 21572     1  0.09572  0.15139
[ bonds ]
21573 21574     1  0.09572  0.15139
[ bonds ]
21573 21575     1  0.09572  0.15139
[ bonds ]
21576 21577     1  0.09572  0.15139
[ bonds ]
21576 21578     1  0.09572  0.15139
[ bonds ]
21579 21580     1  0.09572  0.15139
[ bonds ]
21579 21581     1  0.09572  0.15139
[ bonds ]
21582 21583     1  0.09572  0.15139
[ bonds ]
21582 21584     1  0.09572  0.15139
[ bonds ]
21585 21586     1  0.09572  0.15139
[ bonds ]
21585 21587     1  0.09572  0.15139
[ bonds ]
21588 21589     1  0.09572  0.15139
[ bonds ]
21588 21590     1  0.09572  0.15139
[ bonds ]
21591 21592     1  0.09572  0.15139
[ bonds ]
21591 21593     1  0.09572  0.15139
[ bonds ]
21594 21595     1  0.09572  0.15139
[ bonds ]
21594 21596     1  0.09572  0.15139
[ bonds ]
21597 21598     1  0.09572  0.15139
[ bonds ]
21597 21599     1  0.09572  0.15139
[ bonds ]
21600 21601     1  0.09572  0.15139
[ bonds ]
21600 21602     1  0.09572  0.15139
[ bonds ]
21603 21604     1  0.09572  0.15139
[ bonds ]
21603 21605     1  0.09572  0.15139
[ bonds ]
21606 21607     1  0.09572  0.15139
[ bonds ]
21606 21608     1  0.09572  0.15139
[ bonds ]
21609 21610     1  0.09572  0.15139
[ bonds ]
21609 21611     1  0.09572  0.15139
[ bonds ]
21612 21613     1  0.09572  0.15139
[ bonds ]
21612 21614     1  0.09572  0.15139
[ bonds ]
21615 21616     1  0.09572  0.15139
[ bonds ]
21615 21617     1  0.09572  0.15139
[ bonds ]
21618 21619     1  0.09572  0.15139
[ bonds ]
21618 21620     1  0.09572  0.15139
[ bonds ]
21621 21622     1  0.09572  0.15139
[ bonds ]
21621 21623     1  0.09572  0.15139
[ bonds ]
21624 21625     1  0.09572  0.15139
[ bonds ]
21624 21626     1  0.09572  0.15139
[ bonds ]
21627 21628     1  0.09572  0.15139
[ bonds ]
21627 21629     1  0.09572  0.15139
[ bonds ]
21630 21631     1  0.09572  0.15139
[ bonds ]
21630 21632     1  0.09572  0.15139
[ bonds ]
21633 21634     1  0.09572  0.15139
[ bonds ]
21633 21635     1  0.09572  0.15139
[ bonds ]
21636 21637     1  0.09572  0.15139
[ bonds ]
21636 21638     1  0.09572  0.15139
[ bonds ]
21639 21640     1  0.09572  0.15139
[ bonds ]
21639 21641     1  0.09572  0.15139
[ bonds ]
21642 21643     1  0.09572  0.15139
[ bonds ]
21642 21644     1  0.09572  0.15139
[ bonds ]
21645 21646     1  0.09572  0.15139
[ bonds ]
21645 21647     1  0.09572  0.15139
[ bonds ]
21648 21649     1  0.09572  0.15139
[ bonds ]
21648 21650     1  0.09572  0.15139
[ bonds ]
21651 21652     1  0.09572  0.15139
[ bonds ]
21651 21653     1  0.09572  0.15139
[ bonds ]
21654 21655     1  0.09572  0.15139
[ bonds ]
21654 21656     1  0.09572  0.15139
[ bonds ]
21657 21658     1  0.09572  0.15139
[ bonds ]
21657 21659     1  0.09572  0.15139
[ bonds ]
21660 21661     1  0.09572  0.15139
[ bonds ]
21660 21662     1  0.09572  0.15139
[ bonds ]
21663 21664     1  0.09572  0.15139
[ bonds ]
21663 21665     1  0.09572  0.15139
[ bonds ]
21666 21667     1  0.09572  0.15139
[ bonds ]
21666 21668     1  0.09572  0.15139
[ bonds ]
21669 21670     1  0.09572  0.15139
[ bonds ]
21669 21671     1  0.09572  0.15139
[ bonds ]
21672 21673     1  0.09572  0.15139
[ bonds ]
21672 21674     1  0.09572  0.15139
[ bonds ]
21675 21676     1  0.09572  0.15139
[ bonds ]
21675 21677     1  0.09572  0.15139
[ bonds ]
21678 21679     1  0.09572  0.15139
[ bonds ]
21678 21680     1  0.09572  0.15139
[ bonds ]
21681 21682     1  0.09572  0.15139
[ bonds ]
21681 21683     1  0.09572  0.15139
[ bonds ]
21684 21685     1  0.09572  0.15139
[ bonds ]
21684 21686     1  0.09572  0.15139
[ bonds ]
21687 21688     1  0.09572  0.15139
[ bonds ]
21687 21689     1  0.09572  0.15139
[ bonds ]
21690 21691     1  0.09572  0.15139
[ bonds ]
21690 21692     1  0.09572  0.15139
[ bonds ]
21693 21694     1  0.09572  0.15139
[ bonds ]
21693 21695     1  0.09572  0.15139
[ bonds ]
21696 21697     1  0.09572  0.15139
[ bonds ]
21696 21698     1  0.09572  0.15139
[ bonds ]
21699 21700     1  0.09572  0.15139
[ bonds ]
21699 21701     1  0.09572  0.15139
[ bonds ]
21702 21703     1  0.09572  0.15139
[ bonds ]
21702 21704     1  0.09572  0.15139
[ bonds ]
21705 21706     1  0.09572  0.15139
[ bonds ]
21705 21707     1  0.09572  0.15139
[ bonds ]
21708 21709     1  0.09572  0.15139
[ bonds ]
21708 21710     1  0.09572  0.15139
[ bonds ]
21711 21712     1  0.09572  0.15139
[ bonds ]
21711 21713     1  0.09572  0.15139
[ bonds ]
21714 21715     1  0.09572  0.15139
[ bonds ]
21714 21716     1  0.09572  0.15139
[ bonds ]
21717 21718     1  0.09572  0.15139
[ bonds ]
21717 21719     1  0.09572  0.15139
[ bonds ]
21720 21721     1  0.09572  0.15139
[ bonds ]
21720 21722     1  0.09572  0.15139
[ bonds ]
21723 21724     1  0.09572  0.15139
[ bonds ]
21723 21725     1  0.09572  0.15139
[ bonds ]
21726 21727     1  0.09572  0.15139
[ bonds ]
21726 21728     1  0.09572  0.15139
[ bonds ]
21729 21730     1  0.09572  0.15139
[ bonds ]
21729 21731     1  0.09572  0.15139
[ bonds ]
21732 21733     1  0.09572  0.15139
[ bonds ]
21732 21734     1  0.09572  0.15139
[ bonds ]
21735 21736     1  0.09572  0.15139
[ bonds ]
21735 21737     1  0.09572  0.15139
[ bonds ]
21738 21739     1  0.09572  0.15139
[ bonds ]
21738 21740     1  0.09572  0.15139
[ bonds ]
21741 21742     1  0.09572  0.15139
[ bonds ]
21741 21743     1  0.09572  0.15139
[ bonds ]
21744 21745     1  0.09572  0.15139
[ bonds ]
21744 21746     1  0.09572  0.15139
[ bonds ]
21747 21748     1  0.09572  0.15139
[ bonds ]
21747 21749     1  0.09572  0.15139
[ bonds ]
21750 21751     1  0.09572  0.15139
[ bonds ]
21750 21752     1  0.09572  0.15139
[ bonds ]
21753 21754     1  0.09572  0.15139
[ bonds ]
21753 21755     1  0.09572  0.15139
[ bonds ]
21756 21757     1  0.09572  0.15139
[ bonds ]
21756 21758     1  0.09572  0.15139
[ bonds ]
21759 21760     1  0.09572  0.15139
[ bonds ]
21759 21761     1  0.09572  0.15139
[ bonds ]
21762 21763     1  0.09572  0.15139
[ bonds ]
21762 21764     1  0.09572  0.15139
[ bonds ]
21765 21766     1  0.09572  0.15139
[ bonds ]
21765 21767     1  0.09572  0.15139
[ bonds ]
21768 21769     1  0.09572  0.15139
[ bonds ]
21768 21770     1  0.09572  0.15139
[ bonds ]
21771 21772     1  0.09572  0.15139
[ bonds ]
21771 21773     1  0.09572  0.15139
[ bonds ]
21774 21775     1  0.09572  0.15139
[ bonds ]
21774 21776     1  0.09572  0.15139
[ bonds ]
21777 21778     1  0.09572  0.15139
[ bonds ]
21777 21779     1  0.09572  0.15139
[ bonds ]
21780 21781     1  0.09572  0.15139
[ bonds ]
21780 21782     1  0.09572  0.15139
[ bonds ]
21783 21784     1  0.09572  0.15139
[ bonds ]
21783 21785     1  0.09572  0.15139
[ bonds ]
21786 21787     1  0.09572  0.15139
[ bonds ]
21786 21788     1  0.09572  0.15139
[ bonds ]
21789 21790     1  0.09572  0.15139
[ bonds ]
21789 21791     1  0.09572  0.15139
[ bonds ]
21792 21793     1  0.09572  0.15139
[ bonds ]
21792 21794     1  0.09572  0.15139
[ bonds ]
21795 21796     1  0.09572  0.15139
[ bonds ]
21795 21797     1  0.09572  0.15139
[ bonds ]
21798 21799     1  0.09572  0.15139
[ bonds ]
21798 21800     1  0.09572  0.15139
[ bonds ]
21801 21802     1  0.09572  0.15139
[ bonds ]
21801 21803     1  0.09572  0.15139
[ bonds ]
21804 21805     1  0.09572  0.15139
[ bonds ]
21804 21806     1  0.09572  0.15139
[ bonds ]
21807 21808     1  0.09572  0.15139
[ bonds ]
21807 21809     1  0.09572  0.15139
[ bonds ]
21810 21811     1  0.09572  0.15139
[ bonds ]
21810 21812     1  0.09572  0.15139
[ bonds ]
21813 21814     1  0.09572  0.15139
[ bonds ]
21813 21815     1  0.09572  0.15139
[ bonds ]
21816 21817     1  0.09572  0.15139
[ bonds ]
21816 21818     1  0.09572  0.15139
[ bonds ]
21819 21820     1  0.09572  0.15139
[ bonds ]
21819 21821     1  0.09572  0.15139
[ bonds ]
21822 21823     1  0.09572  0.15139
[ bonds ]
21822 21824     1  0.09572  0.15139
[ bonds ]
21825 21826     1  0.09572  0.15139
[ bonds ]
21825 21827     1  0.09572  0.15139
[ bonds ]
21828 21829     1  0.09572  0.15139
[ bonds ]
21828 21830     1  0.09572  0.15139
[ bonds ]
21831 21832     1  0.09572  0.15139
[ bonds ]
21831 21833     1  0.09572  0.15139
[ bonds ]
21834 21835     1  0.09572  0.15139
[ bonds ]
21834 21836     1  0.09572  0.15139
[ bonds ]
21837 21838     1  0.09572  0.15139
[ bonds ]
21837 21839     1  0.09572  0.15139
[ bonds ]
21840 21841     1  0.09572  0.15139
[ bonds ]
21840 21842     1  0.09572  0.15139
[ bonds ]
21843 21844     1  0.09572  0.15139
[ bonds ]
21843 21845     1  0.09572  0.15139
[ bonds ]
21846 21847     1  0.09572  0.15139
[ bonds ]
21846 21848     1  0.09572  0.15139
[ bonds ]
21849 21850     1  0.09572  0.15139
[ bonds ]
21849 21851     1  0.09572  0.15139
[ bonds ]
21852 21853     1  0.09572  0.15139
[ bonds ]
21852 21854     1  0.09572  0.15139
[ bonds ]
21855 21856     1  0.09572  0.15139
[ bonds ]
21855 21857     1  0.09572  0.15139
[ bonds ]
21858 21859     1  0.09572  0.15139
[ bonds ]
21858 21860     1  0.09572  0.15139
[ bonds ]
21861 21862     1  0.09572  0.15139
[ bonds ]
21861 21863     1  0.09572  0.15139
[ bonds ]
21864 21865     1  0.09572  0.15139
[ bonds ]
21864 21866     1  0.09572  0.15139
[ bonds ]
21867 21868     1  0.09572  0.15139
[ bonds ]
21867 21869     1  0.09572  0.15139
[ bonds ]
21870 21871     1  0.09572  0.15139
[ bonds ]
21870 21872     1  0.09572  0.15139
[ bonds ]
21873 21874     1  0.09572  0.15139
[ bonds ]
21873 21875     1  0.09572  0.15139
[ bonds ]
21876 21877     1  0.09572  0.15139
[ bonds ]
21876 21878     1  0.09572  0.15139
[ bonds ]
21879 21880     1  0.09572  0.15139
[ bonds ]
21879 21881     1  0.09572  0.15139
[ bonds ]
21882 21883     1  0.09572  0.15139
[ bonds ]
21882 21884     1  0.09572  0.15139
[ bonds ]
21885 21886     1  0.09572  0.15139
[ bonds ]
21885 21887     1  0.09572  0.15139
[ bonds ]
21888 21889     1  0.09572  0.15139
[ bonds ]
21888 21890     1  0.09572  0.15139
[ bonds ]
21891 21892     1  0.09572  0.15139
[ bonds ]
21891 21893     1  0.09572  0.15139
[ bonds ]
21894 21895     1  0.09572  0.15139
[ bonds ]
21894 21896     1  0.09572  0.15139
[ bonds ]
21897 21898     1  0.09572  0.15139
[ bonds ]
21897 21899     1  0.09572  0.15139
[ bonds ]
21900 21901     1  0.09572  0.15139
[ bonds ]
21900 21902     1  0.09572  0.15139
[ bonds ]
21903 21904     1  0.09572  0.15139
[ bonds ]
21903 21905     1  0.09572  0.15139
[ bonds ]
21906 21907     1  0.09572  0.15139
[ bonds ]
21906 21908     1  0.09572  0.15139
[ bonds ]
21909 21910     1  0.09572  0.15139
[ bonds ]
21909 21911     1  0.09572  0.15139
[ bonds ]
21912 21913     1  0.09572  0.15139
[ bonds ]
21912 21914     1  0.09572  0.15139
[ bonds ]
21915 21916     1  0.09572  0.15139
[ bonds ]
21915 21917     1  0.09572  0.15139
[ bonds ]
21918 21919     1  0.09572  0.15139
[ bonds ]
21918 21920     1  0.09572  0.15139
[ bonds ]
21921 21922     1  0.09572  0.15139
[ bonds ]
21921 21923     1  0.09572  0.15139
[ bonds ]
21924 21925     1  0.09572  0.15139
[ bonds ]
21924 21926     1  0.09572  0.15139
[ bonds ]
21927 21928     1  0.09572  0.15139
[ bonds ]
21927 21929     1  0.09572  0.15139
[ bonds ]
21930 21931     1  0.09572  0.15139
[ bonds ]
21930 21932     1  0.09572  0.15139
[ bonds ]
21933 21934     1  0.09572  0.15139
[ bonds ]
21933 21935     1  0.09572  0.15139
[ bonds ]
21936 21937     1  0.09572  0.15139
[ bonds ]
21936 21938     1  0.09572  0.15139
[ bonds ]
21939 21940     1  0.09572  0.15139
[ bonds ]
21939 21941     1  0.09572  0.15139
[ bonds ]
21942 21943     1  0.09572  0.15139
[ bonds ]
21942 21944     1  0.09572  0.15139
[ bonds ]
21945 21946     1  0.09572  0.15139
[ bonds ]
21945 21947     1  0.09572  0.15139
[ bonds ]
21948 21949     1  0.09572  0.15139
[ bonds ]
21948 21950     1  0.09572  0.15139
[ bonds ]
21951 21952     1  0.09572  0.15139
[ bonds ]
21951 21953     1  0.09572  0.15139
[ bonds ]
21954 21955     1  0.09572  0.15139
[ bonds ]
21954 21956     1  0.09572  0.15139
[ bonds ]
21957 21958     1  0.09572  0.15139
[ bonds ]
21957 21959     1  0.09572  0.15139
[ bonds ]
21960 21961     1  0.09572  0.15139
[ bonds ]
21960 21962     1  0.09572  0.15139
[ bonds ]
21963 21964     1  0.09572  0.15139
[ bonds ]
21963 21965     1  0.09572  0.15139
[ bonds ]
21966 21967     1  0.09572  0.15139
[ bonds ]
21966 21968     1  0.09572  0.15139
[ bonds ]
21969 21970     1  0.09572  0.15139
[ bonds ]
21969 21971     1  0.09572  0.15139
[ bonds ]
21972 21973     1  0.09572  0.15139
[ bonds ]
21972 21974     1  0.09572  0.15139
[ bonds ]
21975 21976     1  0.09572  0.15139
[ bonds ]
21975 21977     1  0.09572  0.15139
[ bonds ]
21978 21979     1  0.09572  0.15139
[ bonds ]
21978 21980     1  0.09572  0.15139
[ bonds ]
21981 21982     1  0.09572  0.15139
[ bonds ]
21981 21983     1  0.09572  0.15139
[ bonds ]
21984 21985     1  0.09572  0.15139
[ bonds ]
21984 21986     1  0.09572  0.15139
[ bonds ]
21987 21988     1  0.09572  0.15139
[ bonds ]
21987 21989     1  0.09572  0.15139
[ bonds ]
21990 21991     1  0.09572  0.15139
[ bonds ]
21990 21992     1  0.09572  0.15139
[ bonds ]
21993 21994     1  0.09572  0.15139
[ bonds ]
21993 21995     1  0.09572  0.15139
[ bonds ]
21996 21997     1  0.09572  0.15139
[ bonds ]
21996 21998     1  0.09572  0.15139
[ bonds ]
21999 22000     1  0.09572  0.15139
[ bonds ]
21999 22001     1  0.09572  0.15139
[ bonds ]
22002 22003     1  0.09572  0.15139
[ bonds ]
22002 22004     1  0.09572  0.15139
[ bonds ]
22005 22006     1  0.09572  0.15139
[ bonds ]
22005 22007     1  0.09572  0.15139
[ bonds ]
22008 22009     1  0.09572  0.15139
[ bonds ]
22008 22010     1  0.09572  0.15139
[ bonds ]
22011 22012     1  0.09572  0.15139
[ bonds ]
22011 22013     1  0.09572  0.15139
[ bonds ]
22014 22015     1  0.09572  0.15139
[ bonds ]
22014 22016     1  0.09572  0.15139
[ bonds ]
22017 22018     1  0.09572  0.15139
[ bonds ]
22017 22019     1  0.09572  0.15139
[ bonds ]
22020 22021     1  0.09572  0.15139
[ bonds ]
22020 22022     1  0.09572  0.15139
[ bonds ]
22023 22024     1  0.09572  0.15139
[ bonds ]
22023 22025     1  0.09572  0.15139
[ bonds ]
22026 22027     1  0.09572  0.15139
[ bonds ]
22026 22028     1  0.09572  0.15139
[ bonds ]
22029 22030     1  0.09572  0.15139
[ bonds ]
22029 22031     1  0.09572  0.15139
[ bonds ]
22032 22033     1  0.09572  0.15139
[ bonds ]
22032 22034     1  0.09572  0.15139
[ bonds ]
22035 22036     1  0.09572  0.15139
[ bonds ]
22035 22037     1  0.09572  0.15139
[ bonds ]
22038 22039     1  0.09572  0.15139
[ bonds ]
22038 22040     1  0.09572  0.15139
[ bonds ]
22041 22042     1  0.09572  0.15139
[ bonds ]
22041 22043     1  0.09572  0.15139
[ bonds ]
22044 22045     1  0.09572  0.15139
[ bonds ]
22044 22046     1  0.09572  0.15139
[ bonds ]
22047 22048     1  0.09572  0.15139
[ bonds ]
22047 22049     1  0.09572  0.15139
[ bonds ]
22050 22051     1  0.09572  0.15139
[ bonds ]
22050 22052     1  0.09572  0.15139
[ bonds ]
22053 22054     1  0.09572  0.15139
[ bonds ]
22053 22055     1  0.09572  0.15139
[ bonds ]
22056 22057     1  0.09572  0.15139
[ bonds ]
22056 22058     1  0.09572  0.15139
[ bonds ]
22059 22060     1  0.09572  0.15139
[ bonds ]
22059 22061     1  0.09572  0.15139
[ bonds ]
22062 22063     1  0.09572  0.15139
[ bonds ]
22062 22064     1  0.09572  0.15139
[ bonds ]
22065 22066     1  0.09572  0.15139
[ bonds ]
22065 22067     1  0.09572  0.15139
[ bonds ]
22068 22069     1  0.09572  0.15139
[ bonds ]
22068 22070     1  0.09572  0.15139
[ bonds ]
22071 22072     1  0.09572  0.15139
[ bonds ]
22071 22073     1  0.09572  0.15139
[ bonds ]
22074 22075     1  0.09572  0.15139
[ bonds ]
22074 22076     1  0.09572  0.15139
[ bonds ]
22077 22078     1  0.09572  0.15139
[ bonds ]
22077 22079     1  0.09572  0.15139
[ bonds ]
22080 22081     1  0.09572  0.15139
[ bonds ]
22080 22082     1  0.09572  0.15139
[ bonds ]
22083 22084     1  0.09572  0.15139
[ bonds ]
22083 22085     1  0.09572  0.15139
[ bonds ]
22086 22087     1  0.09572  0.15139
[ bonds ]
22086 22088     1  0.09572  0.15139
[ bonds ]
22089 22090     1  0.09572  0.15139
[ bonds ]
22089 22091     1  0.09572  0.15139
[ bonds ]
22092 22093     1  0.09572  0.15139
[ bonds ]
22092 22094     1  0.09572  0.15139
[ bonds ]
22095 22096     1  0.09572  0.15139
[ bonds ]
22095 22097     1  0.09572  0.15139
[ bonds ]
22098 22099     1  0.09572  0.15139
[ bonds ]
22098 22100     1  0.09572  0.15139
[ bonds ]
22101 22102     1  0.09572  0.15139
[ bonds ]
22101 22103     1  0.09572  0.15139
[ bonds ]
22104 22105     1  0.09572  0.15139
[ bonds ]
22104 22106     1  0.09572  0.15139
[ bonds ]
22107 22108     1  0.09572  0.15139
[ bonds ]
22107 22109     1  0.09572  0.15139
[ bonds ]
22110 22111     1  0.09572  0.15139
[ bonds ]
22110 22112     1  0.09572  0.15139
[ bonds ]
22113 22114     1  0.09572  0.15139
[ bonds ]
22113 22115     1  0.09572  0.15139
[ bonds ]
22116 22117     1  0.09572  0.15139
[ bonds ]
22116 22118     1  0.09572  0.15139
[ bonds ]
22119 22120     1  0.09572  0.15139
[ bonds ]
22119 22121     1  0.09572  0.15139
[ bonds ]
22122 22123     1  0.09572  0.15139
[ bonds ]
22122 22124     1  0.09572  0.15139
[ bonds ]
22125 22126     1  0.09572  0.15139
[ bonds ]
22125 22127     1  0.09572  0.15139
[ bonds ]
22128 22129     1  0.09572  0.15139
[ bonds ]
22128 22130     1  0.09572  0.15139
[ bonds ]
22131 22132     1  0.09572  0.15139
[ bonds ]
22131 22133     1  0.09572  0.15139
[ bonds ]
22134 22135     1  0.09572  0.15139
[ bonds ]
22134 22136     1  0.09572  0.15139
[ bonds ]
22137 22138     1  0.09572  0.15139
[ bonds ]
22137 22139     1  0.09572  0.15139
[ bonds ]
22140 22141     1  0.09572  0.15139
[ bonds ]
22140 22142     1  0.09572  0.15139
[ bonds ]
22143 22144     1  0.09572  0.15139
[ bonds ]
22143 22145     1  0.09572  0.15139
[ bonds ]
22146 22147     1  0.09572  0.15139
[ bonds ]
22146 22148     1  0.09572  0.15139
[ bonds ]
22149 22150     1  0.09572  0.15139
[ bonds ]
22149 22151     1  0.09572  0.15139
[ bonds ]
22152 22153     1  0.09572  0.15139
[ bonds ]
22152 22154     1  0.09572  0.15139
[ bonds ]
22155 22156     1  0.09572  0.15139
[ bonds ]
22155 22157     1  0.09572  0.15139
[ bonds ]
22158 22159     1  0.09572  0.15139
[ bonds ]
22158 22160     1  0.09572  0.15139
[ bonds ]
22161 22162     1  0.09572  0.15139
[ bonds ]
22161 22163     1  0.09572  0.15139
[ bonds ]
22164 22165     1  0.09572  0.15139
[ bonds ]
22164 22166     1  0.09572  0.15139
[ bonds ]
22167 22168     1  0.09572  0.15139
[ bonds ]
22167 22169     1  0.09572  0.15139
[ bonds ]
22170 22171     1  0.09572  0.15139
[ bonds ]
22170 22172     1  0.09572  0.15139
[ bonds ]
22173 22174     1  0.09572  0.15139
[ bonds ]
22173 22175     1  0.09572  0.15139
[ bonds ]
22176 22177     1  0.09572  0.15139
[ bonds ]
22176 22178     1  0.09572  0.15139
[ bonds ]
22179 22180     1  0.09572  0.15139
[ bonds ]
22179 22181     1  0.09572  0.15139
[ bonds ]
22182 22183     1  0.09572  0.15139
[ bonds ]
22182 22184     1  0.09572  0.15139
[ bonds ]
22185 22186     1  0.09572  0.15139
[ bonds ]
22185 22187     1  0.09572  0.15139
[ bonds ]
22188 22189     1  0.09572  0.15139
[ bonds ]
22188 22190     1  0.09572  0.15139
[ bonds ]
22191 22192     1  0.09572  0.15139
[ bonds ]
22191 22193     1  0.09572  0.15139
[ bonds ]
22194 22195     1  0.09572  0.15139
[ bonds ]
22194 22196     1  0.09572  0.15139
[ bonds ]
22197 22198     1  0.09572  0.15139
[ bonds ]
22197 22199     1  0.09572  0.15139
[ bonds ]
22200 22201     1  0.09572  0.15139
[ bonds ]
22200 22202     1  0.09572  0.15139
[ bonds ]
22203 22204     1  0.09572  0.15139
[ bonds ]
22203 22205     1  0.09572  0.15139
[ bonds ]
22206 22207     1  0.09572  0.15139
[ bonds ]
22206 22208     1  0.09572  0.15139
[ bonds ]
22209 22210     1  0.09572  0.15139
[ bonds ]
22209 22211     1  0.09572  0.15139
[ bonds ]
22212 22213     1  0.09572  0.15139
[ bonds ]
22212 22214     1  0.09572  0.15139
[ bonds ]
22215 22216     1  0.09572  0.15139
[ bonds ]
22215 22217     1  0.09572  0.15139
[ bonds ]
22218 22219     1  0.09572  0.15139
[ bonds ]
22218 22220     1  0.09572  0.15139
[ bonds ]
22221 22222     1  0.09572  0.15139
[ bonds ]
22221 22223     1  0.09572  0.15139
[ bonds ]
22224 22225     1  0.09572  0.15139
[ bonds ]
22224 22226     1  0.09572  0.15139
[ bonds ]
22227 22228     1  0.09572  0.15139
[ bonds ]
22227 22229     1  0.09572  0.15139
[ bonds ]
22230 22231     1  0.09572  0.15139
[ bonds ]
22230 22232     1  0.09572  0.15139
[ bonds ]
22233 22234     1  0.09572  0.15139
[ bonds ]
22233 22235     1  0.09572  0.15139
[ bonds ]
22236 22237     1  0.09572  0.15139
[ bonds ]
22236 22238     1  0.09572  0.15139
[ bonds ]
22239 22240     1  0.09572  0.15139
[ bonds ]
22239 22241     1  0.09572  0.15139
[ bonds ]
22242 22243     1  0.09572  0.15139
[ bonds ]
22242 22244     1  0.09572  0.15139
[ bonds ]
22245 22246     1  0.09572  0.15139
[ bonds ]
22245 22247     1  0.09572  0.15139
[ bonds ]
22248 22249     1  0.09572  0.15139
[ bonds ]
22248 22250     1  0.09572  0.15139
[ bonds ]
22251 22252     1  0.09572  0.15139
[ bonds ]
22251 22253     1  0.09572  0.15139
[ bonds ]
22254 22255     1  0.09572  0.15139
[ bonds ]
22254 22256     1  0.09572  0.15139
[ bonds ]
22257 22258     1  0.09572  0.15139
[ bonds ]
22257 22259     1  0.09572  0.15139
[ bonds ]
22260 22261     1  0.09572  0.15139
[ bonds ]
22260 22262     1  0.09572  0.15139
[ bonds ]
22263 22264     1  0.09572  0.15139
[ bonds ]
22263 22265     1  0.09572  0.15139
[ bonds ]
22266 22267     1  0.09572  0.15139
[ bonds ]
22266 22268     1  0.09572  0.15139
[ bonds ]
22269 22270     1  0.09572  0.15139
[ bonds ]
22269 22271     1  0.09572  0.15139
[ bonds ]
22272 22273     1  0.09572  0.15139
[ bonds ]
22272 22274     1  0.09572  0.15139
[ bonds ]
22275 22276     1  0.09572  0.15139
[ bonds ]
22275 22277     1  0.09572  0.15139
[ bonds ]
22278 22279     1  0.09572  0.15139
[ bonds ]
22278 22280     1  0.09572  0.15139
[ bonds ]
22281 22282     1  0.09572  0.15139
[ bonds ]
22281 22283     1  0.09572  0.15139
[ bonds ]
22284 22285     1  0.09572  0.15139
[ bonds ]
22284 22286     1  0.09572  0.15139
[ bonds ]
22287 22288     1  0.09572  0.15139
[ bonds ]
22287 22289     1  0.09572  0.15139
[ bonds ]
22290 22291     1  0.09572  0.15139
[ bonds ]
22290 22292     1  0.09572  0.15139
[ bonds ]
22293 22294     1  0.09572  0.15139
[ bonds ]
22293 22295     1  0.09572  0.15139
[ bonds ]
22296 22297     1  0.09572  0.15139
[ bonds ]
22296 22298     1  0.09572  0.15139
[ bonds ]
22299 22300     1  0.09572  0.15139
[ bonds ]
22299 22301     1  0.09572  0.15139
[ bonds ]
22302 22303     1  0.09572  0.15139
[ bonds ]
22302 22304     1  0.09572  0.15139
[ bonds ]
22305 22306     1  0.09572  0.15139
[ bonds ]
22305 22307     1  0.09572  0.15139
[ bonds ]
22308 22309     1  0.09572  0.15139
[ bonds ]
22308 22310     1  0.09572  0.15139
[ bonds ]
22311 22312     1  0.09572  0.15139
[ bonds ]
22311 22313     1  0.09572  0.15139
[ bonds ]
22314 22315     1  0.09572  0.15139
[ bonds ]
22314 22316     1  0.09572  0.15139
[ bonds ]
22317 22318     1  0.09572  0.15139
[ bonds ]
22317 22319     1  0.09572  0.15139
[ bonds ]
22320 22321     1  0.09572  0.15139
[ bonds ]
22320 22322     1  0.09572  0.15139
[ bonds ]
22323 22324     1  0.09572  0.15139
[ bonds ]
22323 22325     1  0.09572  0.15139
[ bonds ]
22326 22327     1  0.09572  0.15139
[ bonds ]
22326 22328     1  0.09572  0.15139
[ bonds ]
22329 22330     1  0.09572  0.15139
[ bonds ]
22329 22331     1  0.09572  0.15139
[ bonds ]
22332 22333     1  0.09572  0.15139
[ bonds ]
22332 22334     1  0.09572  0.15139
[ bonds ]
22335 22336     1  0.09572  0.15139
[ bonds ]
22335 22337     1  0.09572  0.15139
[ bonds ]
22338 22339     1  0.09572  0.15139
[ bonds ]
22338 22340     1  0.09572  0.15139
[ bonds ]
22341 22342     1  0.09572  0.15139
[ bonds ]
22341 22343     1  0.09572  0.15139
[ bonds ]
22344 22345     1  0.09572  0.15139
[ bonds ]
22344 22346     1  0.09572  0.15139
[ bonds ]
22347 22348     1  0.09572  0.15139
[ bonds ]
22347 22349     1  0.09572  0.15139
[ bonds ]
22350 22351     1  0.09572  0.15139
[ bonds ]
22350 22352     1  0.09572  0.15139
[ bonds ]
22353 22354     1  0.09572  0.15139
[ bonds ]
22353 22355     1  0.09572  0.15139
[ bonds ]
22356 22357     1  0.09572  0.15139
[ bonds ]
22356 22358     1  0.09572  0.15139
[ bonds ]
22359 22360     1  0.09572  0.15139
[ bonds ]
22359 22361     1  0.09572  0.15139
[ bonds ]
22362 22363     1  0.09572  0.15139
[ bonds ]
22362 22364     1  0.09572  0.15139
[ bonds ]
22365 22366     1  0.09572  0.15139
[ bonds ]
22365 22367     1  0.09572  0.15139
[ bonds ]
22368 22369     1  0.09572  0.15139
[ bonds ]
22368 22370     1  0.09572  0.15139
[ bonds ]
22371 22372     1  0.09572  0.15139
[ bonds ]
22371 22373     1  0.09572  0.15139
[ bonds ]
22374 22375     1  0.09572  0.15139
[ bonds ]
22374 22376     1  0.09572  0.15139
[ bonds ]
22377 22378     1  0.09572  0.15139
[ bonds ]
22377 22379     1  0.09572  0.15139
[ bonds ]
22380 22381     1  0.09572  0.15139
[ bonds ]
22380 22382     1  0.09572  0.15139
[ bonds ]
22383 22384     1  0.09572  0.15139
[ bonds ]
22383 22385     1  0.09572  0.15139
[ bonds ]
22386 22387     1  0.09572  0.15139
[ bonds ]
22386 22388     1  0.09572  0.15139
[ bonds ]
22389 22390     1  0.09572  0.15139
[ bonds ]
22389 22391     1  0.09572  0.15139
[ bonds ]
22392 22393     1  0.09572  0.15139
[ bonds ]
22392 22394     1  0.09572  0.15139
[ bonds ]
22395 22396     1  0.09572  0.15139
[ bonds ]
22395 22397     1  0.09572  0.15139
[ bonds ]
22398 22399     1  0.09572  0.15139
[ bonds ]
22398 22400     1  0.09572  0.15139
[ bonds ]
22401 22402     1  0.09572  0.15139
[ bonds ]
22401 22403     1  0.09572  0.15139
[ bonds ]
22404 22405     1  0.09572  0.15139
[ bonds ]
22404 22406     1  0.09572  0.15139
[ bonds ]
22407 22408     1  0.09572  0.15139
[ bonds ]
22407 22409     1  0.09572  0.15139
[ bonds ]
22410 22411     1  0.09572  0.15139
[ bonds ]
22410 22412     1  0.09572  0.15139
[ bonds ]
22413 22414     1  0.09572  0.15139
[ bonds ]
22413 22415     1  0.09572  0.15139
[ bonds ]
22416 22417     1  0.09572  0.15139
[ bonds ]
22416 22418     1  0.09572  0.15139
[ bonds ]
22419 22420     1  0.09572  0.15139
[ bonds ]
22419 22421     1  0.09572  0.15139
[ bonds ]
22422 22423     1  0.09572  0.15139
[ bonds ]
22422 22424     1  0.09572  0.15139
[ bonds ]
22425 22426     1  0.09572  0.15139
[ bonds ]
22425 22427     1  0.09572  0.15139
[ bonds ]
22428 22429     1  0.09572  0.15139
[ bonds ]
22428 22430     1  0.09572  0.15139
[ bonds ]
22431 22432     1  0.09572  0.15139
[ bonds ]
22431 22433     1  0.09572  0.15139
[ bonds ]
22434 22435     1  0.09572  0.15139
[ bonds ]
22434 22436     1  0.09572  0.15139
[ bonds ]
22437 22438     1  0.09572  0.15139
[ bonds ]
22437 22439     1  0.09572  0.15139
[ bonds ]
22440 22441     1  0.09572  0.15139
[ bonds ]
22440 22442     1  0.09572  0.15139
[ bonds ]
22443 22444     1  0.09572  0.15139
[ bonds ]
22443 22445     1  0.09572  0.15139
[ bonds ]
22446 22447     1  0.09572  0.15139
[ bonds ]
22446 22448     1  0.09572  0.15139
[ bonds ]
22449 22450     1  0.09572  0.15139
[ bonds ]
22449 22451     1  0.09572  0.15139
[ bonds ]
22452 22453     1  0.09572  0.15139
[ bonds ]
22452 22454     1  0.09572  0.15139
[ bonds ]
22455 22456     1  0.09572  0.15139
[ bonds ]
22455 22457     1  0.09572  0.15139
[ bonds ]
22458 22459     1  0.09572  0.15139
[ bonds ]
22458 22460     1  0.09572  0.15139
[ bonds ]
22461 22462     1  0.09572  0.15139
[ bonds ]
22461 22463     1  0.09572  0.15139
[ bonds ]
22464 22465     1  0.09572  0.15139
[ bonds ]
22464 22466     1  0.09572  0.15139
[ bonds ]
22467 22468     1  0.09572  0.15139
[ bonds ]
22467 22469     1  0.09572  0.15139
[ bonds ]
22470 22471     1  0.09572  0.15139
[ bonds ]
22470 22472     1  0.09572  0.15139
[ bonds ]
22473 22474     1  0.09572  0.15139
[ bonds ]
22473 22475     1  0.09572  0.15139
[ bonds ]
22476 22477     1  0.09572  0.15139
[ bonds ]
22476 22478     1  0.09572  0.15139
[ bonds ]
22479 22480     1  0.09572  0.15139
[ bonds ]
22479 22481     1  0.09572  0.15139
[ bonds ]
22482 22483     1  0.09572  0.15139
[ bonds ]
22482 22484     1  0.09572  0.15139
[ bonds ]
22485 22486     1  0.09572  0.15139
[ bonds ]
22485 22487     1  0.09572  0.15139
[ bonds ]
22488 22489     1  0.09572  0.15139
[ bonds ]
22488 22490     1  0.09572  0.15139
[ bonds ]
22491 22492     1  0.09572  0.15139
[ bonds ]
22491 22493     1  0.09572  0.15139
[ bonds ]
22494 22495     1  0.09572  0.15139
[ bonds ]
22494 22496     1  0.09572  0.15139
[ bonds ]
22497 22498     1  0.09572  0.15139
[ bonds ]
22497 22499     1  0.09572  0.15139
[ bonds ]
22500 22501     1  0.09572  0.15139
[ bonds ]
22500 22502     1  0.09572  0.15139
[ bonds ]
22503 22504     1  0.09572  0.15139
[ bonds ]
22503 22505     1  0.09572  0.15139
[ bonds ]
22506 22507     1  0.09572  0.15139
[ bonds ]
22506 22508     1  0.09572  0.15139
[ bonds ]
22509 22510     1  0.09572  0.15139
[ bonds ]
22509 22511     1  0.09572  0.15139
[ bonds ]
22512 22513     1  0.09572  0.15139
[ bonds ]
22512 22514     1  0.09572  0.15139
[ bonds ]
22515 22516     1  0.09572  0.15139
[ bonds ]
22515 22517     1  0.09572  0.15139
[ bonds ]
22518 22519     1  0.09572  0.15139
[ bonds ]
22518 22520     1  0.09572  0.15139
[ bonds ]
22521 22522     1  0.09572  0.15139
[ bonds ]
22521 22523     1  0.09572  0.15139
[ bonds ]
22524 22525     1  0.09572  0.15139
[ bonds ]
22524 22526     1  0.09572  0.15139
[ bonds ]
22527 22528     1  0.09572  0.15139
[ bonds ]
22527 22529     1  0.09572  0.15139
[ bonds ]
22530 22531     1  0.09572  0.15139
[ bonds ]
22530 22532     1  0.09572  0.15139
[ bonds ]
22533 22534     1  0.09572  0.15139
[ bonds ]
22533 22535     1  0.09572  0.15139
[ bonds ]
22536 22537     1  0.09572  0.15139
[ bonds ]
22536 22538     1  0.09572  0.15139
[ bonds ]
22539 22540     1  0.09572  0.15139
[ bonds ]
22539 22541     1  0.09572  0.15139
[ bonds ]
22542 22543     1  0.09572  0.15139
[ bonds ]
22542 22544     1  0.09572  0.15139
[ bonds ]
22545 22546     1  0.09572  0.15139
[ bonds ]
22545 22547     1  0.09572  0.15139
[ bonds ]
22548 22549     1  0.09572  0.15139
[ bonds ]
22548 22550     1  0.09572  0.15139
[ bonds ]
22551 22552     1  0.09572  0.15139
[ bonds ]
22551 22553     1  0.09572  0.15139
[ bonds ]
22554 22555     1  0.09572  0.15139
[ bonds ]
22554 22556     1  0.09572  0.15139
[ bonds ]
22557 22558     1  0.09572  0.15139
[ bonds ]
22557 22559     1  0.09572  0.15139
[ bonds ]
22560 22561     1  0.09572  0.15139
[ bonds ]
22560 22562     1  0.09572  0.15139
[ bonds ]
22563 22564     1  0.09572  0.15139
[ bonds ]
22563 22565     1  0.09572  0.15139
[ bonds ]
22566 22567     1  0.09572  0.15139
[ bonds ]
22566 22568     1  0.09572  0.15139
[ bonds ]
22569 22570     1  0.09572  0.15139
[ bonds ]
22569 22571     1  0.09572  0.15139
[ bonds ]
22572 22573     1  0.09572  0.15139
[ bonds ]
22572 22574     1  0.09572  0.15139
[ bonds ]
22575 22576     1  0.09572  0.15139
[ bonds ]
22575 22577     1  0.09572  0.15139
[ bonds ]
22578 22579     1  0.09572  0.15139
[ bonds ]
22578 22580     1  0.09572  0.15139
[ bonds ]
22581 22582     1  0.09572  0.15139
[ bonds ]
22581 22583     1  0.09572  0.15139
[ bonds ]
22584 22585     1  0.09572  0.15139
[ bonds ]
22584 22586     1  0.09572  0.15139
[ bonds ]
22587 22588     1  0.09572  0.15139
[ bonds ]
22587 22589     1  0.09572  0.15139
[ bonds ]
22590 22591     1  0.09572  0.15139
[ bonds ]
22590 22592     1  0.09572  0.15139
[ bonds ]
22593 22594     1  0.09572  0.15139
[ bonds ]
22593 22595     1  0.09572  0.15139
[ bonds ]
22596 22597     1  0.09572  0.15139
[ bonds ]
22596 22598     1  0.09572  0.15139
[ bonds ]
22599 22600     1  0.09572  0.15139
[ bonds ]
22599 22601     1  0.09572  0.15139
[ bonds ]
22602 22603     1  0.09572  0.15139
[ bonds ]
22602 22604     1  0.09572  0.15139
[ bonds ]
22605 22606     1  0.09572  0.15139
[ bonds ]
22605 22607     1  0.09572  0.15139
[ bonds ]
22608 22609     1  0.09572  0.15139
[ bonds ]
22608 22610     1  0.09572  0.15139
[ bonds ]
22611 22612     1  0.09572  0.15139
[ bonds ]
22611 22613     1  0.09572  0.15139
[ bonds ]
22614 22615     1  0.09572  0.15139
[ bonds ]
22614 22616     1  0.09572  0.15139
[ bonds ]
22617 22618     1  0.09572  0.15139
[ bonds ]
22617 22619     1  0.09572  0.15139
[ bonds ]
22620 22621     1  0.09572  0.15139
[ bonds ]
22620 22622     1  0.09572  0.15139
[ bonds ]
22623 22624     1  0.09572  0.15139
[ bonds ]
22623 22625     1  0.09572  0.15139
[ bonds ]
22626 22627     1  0.09572  0.15139
[ bonds ]
22626 22628     1  0.09572  0.15139
[ bonds ]
22629 22630     1  0.09572  0.15139
[ bonds ]
22629 22631     1  0.09572  0.15139
[ bonds ]
22632 22633     1  0.09572  0.15139
[ bonds ]
22632 22634     1  0.09572  0.15139
[ bonds ]
22635 22636     1  0.09572  0.15139
[ bonds ]
22635 22637     1  0.09572  0.15139
[ bonds ]
22638 22639     1  0.09572  0.15139
[ bonds ]
22638 22640     1  0.09572  0.15139
[ bonds ]
22641 22642     1  0.09572  0.15139
[ bonds ]
22641 22643     1  0.09572  0.15139
[ bonds ]
22644 22645     1  0.09572  0.15139
[ bonds ]
22644 22646     1  0.09572  0.15139
[ bonds ]
22647 22648     1  0.09572  0.15139
[ bonds ]
22647 22649     1  0.09572  0.15139
[ bonds ]
22650 22651     1  0.09572  0.15139
[ bonds ]
22650 22652     1  0.09572  0.15139
[ bonds ]
22653 22654     1  0.09572  0.15139
[ bonds ]
22653 22655     1  0.09572  0.15139
[ bonds ]
22656 22657     1  0.09572  0.15139
[ bonds ]
22656 22658     1  0.09572  0.15139
[ bonds ]
22659 22660     1  0.09572  0.15139
[ bonds ]
22659 22661     1  0.09572  0.15139
[ bonds ]
22662 22663     1  0.09572  0.15139
[ bonds ]
22662 22664     1  0.09572  0.15139
[ bonds ]
22665 22666     1  0.09572  0.15139
[ bonds ]
22665 22667     1  0.09572  0.15139
[ bonds ]
22668 22669     1  0.09572  0.15139
[ bonds ]
22668 22670     1  0.09572  0.15139
[ bonds ]
22671 22672     1  0.09572  0.15139
[ bonds ]
22671 22673     1  0.09572  0.15139
[ bonds ]
22674 22675     1  0.09572  0.15139
[ bonds ]
22674 22676     1  0.09572  0.15139
[ bonds ]
22677 22678     1  0.09572  0.15139
[ bonds ]
22677 22679     1  0.09572  0.15139
[ bonds ]
22680 22681     1  0.09572  0.15139
[ bonds ]
22680 22682     1  0.09572  0.15139
[ bonds ]
22683 22684     1  0.09572  0.15139
[ bonds ]
22683 22685     1  0.09572  0.15139
[ bonds ]
22686 22687     1  0.09572  0.15139
[ bonds ]
22686 22688     1  0.09572  0.15139
[ bonds ]
22689 22690     1  0.09572  0.15139
[ bonds ]
22689 22691     1  0.09572  0.15139
[ bonds ]
22692 22693     1  0.09572  0.15139
[ bonds ]
22692 22694     1  0.09572  0.15139
[ bonds ]
22695 22696     1  0.09572  0.15139
[ bonds ]
22695 22697     1  0.09572  0.15139
[ bonds ]
22698 22699     1  0.09572  0.15139
[ bonds ]
22698 22700     1  0.09572  0.15139
[ bonds ]
22701 22702     1  0.09572  0.15139
[ bonds ]
22701 22703     1  0.09572  0.15139
[ bonds ]
22704 22705     1  0.09572  0.15139
[ bonds ]
22704 22706     1  0.09572  0.15139
[ bonds ]
22707 22708     1  0.09572  0.15139
[ bonds ]
22707 22709     1  0.09572  0.15139
[ bonds ]
22710 22711     1  0.09572  0.15139
[ bonds ]
22710 22712     1  0.09572  0.15139
[ bonds ]
22713 22714     1  0.09572  0.15139
[ bonds ]
22713 22715     1  0.09572  0.15139
[ bonds ]
22716 22717     1  0.09572  0.15139
[ bonds ]
22716 22718     1  0.09572  0.15139
[ bonds ]
22719 22720     1  0.09572  0.15139
[ bonds ]
22719 22721     1  0.09572  0.15139
[ bonds ]
22722 22723     1  0.09572  0.15139
[ bonds ]
22722 22724     1  0.09572  0.15139
[ bonds ]
22725 22726     1  0.09572  0.15139
[ bonds ]
22725 22727     1  0.09572  0.15139
[ bonds ]
22728 22729     1  0.09572  0.15139
[ bonds ]
22728 22730     1  0.09572  0.15139
[ bonds ]
22731 22732     1  0.09572  0.15139
[ bonds ]
22731 22733     1  0.09572  0.15139
[ bonds ]
22734 22735     1  0.09572  0.15139
[ bonds ]
22734 22736     1  0.09572  0.15139
[ bonds ]
22737 22738     1  0.09572  0.15139
[ bonds ]
22737 22739     1  0.09572  0.15139
[ bonds ]
22740 22741     1  0.09572  0.15139
[ bonds ]
22740 22742     1  0.09572  0.15139
[ bonds ]
22743 22744     1  0.09572  0.15139
[ bonds ]
22743 22745     1  0.09572  0.15139
[ bonds ]
22746 22747     1  0.09572  0.15139
[ bonds ]
22746 22748     1  0.09572  0.15139
[ bonds ]
22749 22750     1  0.09572  0.15139
[ bonds ]
22749 22751     1  0.09572  0.15139
[ bonds ]
22752 22753     1  0.09572  0.15139
[ bonds ]
22752 22754     1  0.09572  0.15139
[ bonds ]
22755 22756     1  0.09572  0.15139
[ bonds ]
22755 22757     1  0.09572  0.15139
[ bonds ]
22758 22759     1  0.09572  0.15139
[ bonds ]
22758 22760     1  0.09572  0.15139
[ bonds ]
22761 22762     1  0.09572  0.15139
[ bonds ]
22761 22763     1  0.09572  0.15139
[ bonds ]
22764 22765     1  0.09572  0.15139
[ bonds ]
22764 22766     1  0.09572  0.15139
[ bonds ]
22767 22768     1  0.09572  0.15139
[ bonds ]
22767 22769     1  0.09572  0.15139
[ bonds ]
22770 22771     1  0.09572  0.15139
[ bonds ]
22770 22772     1  0.09572  0.15139
[ bonds ]
22773 22774     1  0.09572  0.15139
[ bonds ]
22773 22775     1  0.09572  0.15139
[ bonds ]
22776 22777     1  0.09572  0.15139
[ bonds ]
22776 22778     1  0.09572  0.15139
[ bonds ]
22779 22780     1  0.09572  0.15139
[ bonds ]
22779 22781     1  0.09572  0.15139
[ bonds ]
22782 22783     1  0.09572  0.15139
[ bonds ]
22782 22784     1  0.09572  0.15139
[ bonds ]
22785 22786     1  0.09572  0.15139
[ bonds ]
22785 22787     1  0.09572  0.15139
[ bonds ]
22788 22789     1  0.09572  0.15139
[ bonds ]
22788 22790     1  0.09572  0.15139
[ bonds ]
22791 22792     1  0.09572  0.15139
[ bonds ]
22791 22793     1  0.09572  0.15139
[ bonds ]
22794 22795     1  0.09572  0.15139
[ bonds ]
22794 22796     1  0.09572  0.15139
[ bonds ]
22797 22798     1  0.09572  0.15139
[ bonds ]
22797 22799     1  0.09572  0.15139
[ bonds ]
22800 22801     1  0.09572  0.15139
[ bonds ]
22800 22802     1  0.09572  0.15139
[ bonds ]
22803 22804     1  0.09572  0.15139
[ bonds ]
22803 22805     1  0.09572  0.15139
[ bonds ]
22806 22807     1  0.09572  0.15139
[ bonds ]
22806 22808     1  0.09572  0.15139
[ bonds ]
22809 22810     1  0.09572  0.15139
[ bonds ]
22809 22811     1  0.09572  0.15139
[ bonds ]
22812 22813     1  0.09572  0.15139
[ bonds ]
22812 22814     1  0.09572  0.15139
[ bonds ]
22815 22816     1  0.09572  0.15139
[ bonds ]
22815 22817     1  0.09572  0.15139
[ bonds ]
22818 22819     1  0.09572  0.15139
[ bonds ]
22818 22820     1  0.09572  0.15139
[ bonds ]
22821 22822     1  0.09572  0.15139
[ bonds ]
22821 22823     1  0.09572  0.15139
[ bonds ]
22824 22825     1  0.09572  0.15139
[ bonds ]
22824 22826     1  0.09572  0.15139
[ bonds ]
22827 22828     1  0.09572  0.15139
[ bonds ]
22827 22829     1  0.09572  0.15139
[ bonds ]
22830 22831     1  0.09572  0.15139
[ bonds ]
22830 22832     1  0.09572  0.15139
[ bonds ]
22833 22834     1  0.09572  0.15139
[ bonds ]
22833 22835     1  0.09572  0.15139
[ bonds ]
22836 22837     1  0.09572  0.15139
[ bonds ]
22836 22838     1  0.09572  0.15139
[ bonds ]
22839 22840     1  0.09572  0.15139
[ bonds ]
22839 22841     1  0.09572  0.15139
[ bonds ]
22842 22843     1  0.09572  0.15139
[ bonds ]
22842 22844     1  0.09572  0.15139
[ bonds ]
22845 22846     1  0.09572  0.15139
[ bonds ]
22845 22847     1  0.09572  0.15139
[ bonds ]
22848 22849     1  0.09572  0.15139
[ bonds ]
22848 22850     1  0.09572  0.15139
[ bonds ]
22851 22852     1  0.09572  0.15139
[ bonds ]
22851 22853     1  0.09572  0.15139
[ bonds ]
22854 22855     1  0.09572  0.15139
[ bonds ]
22854 22856     1  0.09572  0.15139
[ bonds ]
22857 22858     1  0.09572  0.15139
[ bonds ]
22857 22859     1  0.09572  0.15139
[ bonds ]
22860 22861     1  0.09572  0.15139
[ bonds ]
22860 22862     1  0.09572  0.15139
[ bonds ]
22863 22864     1  0.09572  0.15139
[ bonds ]
22863 22865     1  0.09572  0.15139
[ bonds ]
22866 22867     1  0.09572  0.15139
[ bonds ]
22866 22868     1  0.09572  0.15139
[ bonds ]
22869 22870     1  0.09572  0.15139
[ bonds ]
22869 22871     1  0.09572  0.15139
[ bonds ]
22872 22873     1  0.09572  0.15139
[ bonds ]
22872 22874     1  0.09572  0.15139
[ bonds ]
22875 22876     1  0.09572  0.15139
[ bonds ]
22875 22877     1  0.09572  0.15139
[ bonds ]
22878 22879     1  0.09572  0.15139
[ bonds ]
22878 22880     1  0.09572  0.15139
[ bonds ]
22881 22882     1  0.09572  0.15139
[ bonds ]
22881 22883     1  0.09572  0.15139
[ bonds ]
22884 22885     1  0.09572  0.15139
[ bonds ]
22884 22886     1  0.09572  0.15139
[ bonds ]
22887 22888     1  0.09572  0.15139
[ bonds ]
22887 22889     1  0.09572  0.15139
[ bonds ]
22890 22891     1  0.09572  0.15139
[ bonds ]
22890 22892     1  0.09572  0.15139
[ bonds ]
22893 22894     1  0.09572  0.15139
[ bonds ]
22893 22895     1  0.09572  0.15139
[ bonds ]
22896 22897     1  0.09572  0.15139
[ bonds ]
22896 22898     1  0.09572  0.15139
[ bonds ]
22899 22900     1  0.09572  0.15139
[ bonds ]
22899 22901     1  0.09572  0.15139
[ bonds ]
22902 22903     1  0.09572  0.15139
[ bonds ]
22902 22904     1  0.09572  0.15139
[ bonds ]
22905 22906     1  0.09572  0.15139
[ bonds ]
22905 22907     1  0.09572  0.15139
[ bonds ]
22908 22909     1  0.09572  0.15139
[ bonds ]
22908 22910     1  0.09572  0.15139
[ bonds ]
22911 22912     1  0.09572  0.15139
[ bonds ]
22911 22913     1  0.09572  0.15139
[ bonds ]
22914 22915     1  0.09572  0.15139
[ bonds ]
22914 22916     1  0.09572  0.15139
[ bonds ]
22917 22918     1  0.09572  0.15139
[ bonds ]
22917 22919     1  0.09572  0.15139
[ bonds ]
22920 22921     1  0.09572  0.15139
[ bonds ]
22920 22922     1  0.09572  0.15139
[ bonds ]
22923 22924     1  0.09572  0.15139
[ bonds ]
22923 22925     1  0.09572  0.15139
[ bonds ]
22926 22927     1  0.09572  0.15139
[ bonds ]
22926 22928     1  0.09572  0.15139
[ bonds ]
22929 22930     1  0.09572  0.15139
[ bonds ]
22929 22931     1  0.09572  0.15139
[ bonds ]
22932 22933     1  0.09572  0.15139
[ bonds ]
22932 22934     1  0.09572  0.15139
[ bonds ]
22935 22936     1  0.09572  0.15139
[ bonds ]
22935 22937     1  0.09572  0.15139
[ bonds ]
22938 22939     1  0.09572  0.15139
[ bonds ]
22938 22940     1  0.09572  0.15139
[ bonds ]
22941 22942     1  0.09572  0.15139
[ bonds ]
22941 22943     1  0.09572  0.15139
[ bonds ]
22944 22945     1  0.09572  0.15139
[ bonds ]
22944 22946     1  0.09572  0.15139
[ bonds ]
22947 22948     1  0.09572  0.15139
[ bonds ]
22947 22949     1  0.09572  0.15139
[ bonds ]
22950 22951     1  0.09572  0.15139
[ bonds ]
22950 22952     1  0.09572  0.15139
[ bonds ]
22953 22954     1  0.09572  0.15139
[ bonds ]
22953 22955     1  0.09572  0.15139
[ bonds ]
22956 22957     1  0.09572  0.15139
[ bonds ]
22956 22958     1  0.09572  0.15139
[ bonds ]
22959 22960     1  0.09572  0.15139
[ bonds ]
22959 22961     1  0.09572  0.15139
[ bonds ]
22962 22963     1  0.09572  0.15139
[ bonds ]
22962 22964     1  0.09572  0.15139
[ bonds ]
22965 22966     1  0.09572  0.15139
[ bonds ]
22965 22967     1  0.09572  0.15139
[ bonds ]
22968 22969     1  0.09572  0.15139
[ bonds ]
22968 22970     1  0.09572  0.15139
[ bonds ]
22971 22972     1  0.09572  0.15139
[ bonds ]
22971 22973     1  0.09572  0.15139
[ bonds ]
22974 22975     1  0.09572  0.15139
[ bonds ]
22974 22976     1  0.09572  0.15139
[ bonds ]
22977 22978     1  0.09572  0.15139
[ bonds ]
22977 22979     1  0.09572  0.15139
[ bonds ]
22980 22981     1  0.09572  0.15139
[ bonds ]
22980 22982     1  0.09572  0.15139
[ bonds ]
22983 22984     1  0.09572  0.15139
[ bonds ]
22983 22985     1  0.09572  0.15139
[ bonds ]
22986 22987     1  0.09572  0.15139
[ bonds ]
22986 22988     1  0.09572  0.15139
[ bonds ]
22989 22990     1  0.09572  0.15139
[ bonds ]
22989 22991     1  0.09572  0.15139
[ bonds ]
22992 22993     1  0.09572  0.15139
[ bonds ]
22992 22994     1  0.09572  0.15139
[ bonds ]
22995 22996     1  0.09572  0.15139
[ bonds ]
22995 22997     1  0.09572  0.15139
[ bonds ]
22998 22999     1  0.09572  0.15139
[ bonds ]
22998 23000     1  0.09572  0.15139
[ bonds ]
23001 23002     1  0.09572  0.15139
[ bonds ]
23001 23003     1  0.09572  0.15139
[ bonds ]
23004 23005     1  0.09572  0.15139
[ bonds ]
23004 23006     1  0.09572  0.15139
[ bonds ]
23007 23008     1  0.09572  0.15139
[ bonds ]
23007 23009     1  0.09572  0.15139
[ bonds ]
23010 23011     1  0.09572  0.15139
[ bonds ]
23010 23012     1  0.09572  0.15139
[ bonds ]
23013 23014     1  0.09572  0.15139
[ bonds ]
23013 23015     1  0.09572  0.15139
[ bonds ]
23016 23017     1  0.09572  0.15139
[ bonds ]
23016 23018     1  0.09572  0.15139
[ bonds ]
23019 23020     1  0.09572  0.15139
[ bonds ]
23019 23021     1  0.09572  0.15139
[ bonds ]
23022 23023     1  0.09572  0.15139
[ bonds ]
23022 23024     1  0.09572  0.15139
[ bonds ]
23025 23026     1  0.09572  0.15139
[ bonds ]
23025 23027     1  0.09572  0.15139
[ bonds ]
23028 23029     1  0.09572  0.15139
[ bonds ]
23028 23030     1  0.09572  0.15139
[ bonds ]
23031 23032     1  0.09572  0.15139
[ bonds ]
23031 23033     1  0.09572  0.15139
[ bonds ]
23034 23035     1  0.09572  0.15139
[ bonds ]
23034 23036     1  0.09572  0.15139
[ bonds ]
23037 23038     1  0.09572  0.15139
[ bonds ]
23037 23039     1  0.09572  0.15139
[ bonds ]
23040 23041     1  0.09572  0.15139
[ bonds ]
23040 23042     1  0.09572  0.15139
[ bonds ]
23043 23044     1  0.09572  0.15139
[ bonds ]
23043 23045     1  0.09572  0.15139
[ bonds ]
23046 23047     1  0.09572  0.15139
[ bonds ]
23046 23048     1  0.09572  0.15139
[ bonds ]
23049 23050     1  0.09572  0.15139
[ bonds ]
23049 23051     1  0.09572  0.15139
[ bonds ]
23052 23053     1  0.09572  0.15139
[ bonds ]
23052 23054     1  0.09572  0.15139
[ bonds ]
23055 23056     1  0.09572  0.15139
[ bonds ]
23055 23057     1  0.09572  0.15139
[ bonds ]
23058 23059     1  0.09572  0.15139
[ bonds ]
23058 23060     1  0.09572  0.15139
[ bonds ]
23061 23062     1  0.09572  0.15139
[ bonds ]
23061 23063     1  0.09572  0.15139
[ bonds ]
23064 23065     1  0.09572  0.15139
[ bonds ]
23064 23066     1  0.09572  0.15139
[ bonds ]
23067 23068     1  0.09572  0.15139
[ bonds ]
23067 23069     1  0.09572  0.15139
[ bonds ]
23070 23071     1  0.09572  0.15139
[ bonds ]
23070 23072     1  0.09572  0.15139
[ bonds ]
23073 23074     1  0.09572  0.15139
[ bonds ]
23073 23075     1  0.09572  0.15139
[ bonds ]
23076 23077     1  0.09572  0.15139
[ bonds ]
23076 23078     1  0.09572  0.15139
[ bonds ]
23079 23080     1  0.09572  0.15139
[ bonds ]
23079 23081     1  0.09572  0.15139
[ bonds ]
23082 23083     1  0.09572  0.15139
[ bonds ]
23082 23084     1  0.09572  0.15139
[ bonds ]
23085 23086     1  0.09572  0.15139
[ bonds ]
23085 23087     1  0.09572  0.15139
[ bonds ]
23088 23089     1  0.09572  0.15139
[ bonds ]
23088 23090     1  0.09572  0.15139
[ bonds ]
23091 23092     1  0.09572  0.15139
[ bonds ]
23091 23093     1  0.09572  0.15139
[ bonds ]
23094 23095     1  0.09572  0.15139
[ bonds ]
23094 23096     1  0.09572  0.15139
[ bonds ]
23097 23098     1  0.09572  0.15139
[ bonds ]
23097 23099     1  0.09572  0.15139
[ bonds ]
23100 23101     1  0.09572  0.15139
[ bonds ]
23100 23102     1  0.09572  0.15139
[ bonds ]
23103 23104     1  0.09572  0.15139
[ bonds ]
23103 23105     1  0.09572  0.15139
[ bonds ]
23106 23107     1  0.09572  0.15139
[ bonds ]
23106 23108     1  0.09572  0.15139
[ bonds ]
23109 23110     1  0.09572  0.15139
[ bonds ]
23109 23111     1  0.09572  0.15139
[ bonds ]
23112 23113     1  0.09572  0.15139
[ bonds ]
23112 23114     1  0.09572  0.15139
[ bonds ]
23115 23116     1  0.09572  0.15139
[ bonds ]
23115 23117     1  0.09572  0.15139
[ bonds ]
23118 23119     1  0.09572  0.15139
[ bonds ]
23118 23120     1  0.09572  0.15139
[ bonds ]
23121 23122     1  0.09572  0.15139
[ bonds ]
23121 23123     1  0.09572  0.15139
[ bonds ]
23124 23125     1  0.09572  0.15139
[ bonds ]
23124 23126     1  0.09572  0.15139
[ bonds ]
23127 23128     1  0.09572  0.15139
[ bonds ]
23127 23129     1  0.09572  0.15139
[ bonds ]
23130 23131     1  0.09572  0.15139
[ bonds ]
23130 23132     1  0.09572  0.15139
[ bonds ]
23133 23134     1  0.09572  0.15139
[ bonds ]
23133 23135     1  0.09572  0.15139
[ bonds ]
23136 23137     1  0.09572  0.15139
[ bonds ]
23136 23138     1  0.09572  0.15139
[ bonds ]
23139 23140     1  0.09572  0.15139
[ bonds ]
23139 23141     1  0.09572  0.15139
[ bonds ]
23142 23143     1  0.09572  0.15139
[ bonds ]
23142 23144     1  0.09572  0.15139
[ bonds ]
23145 23146     1  0.09572  0.15139
[ bonds ]
23145 23147     1  0.09572  0.15139
[ bonds ]
23148 23149     1  0.09572  0.15139
[ bonds ]
23148 23150     1  0.09572  0.15139
[ bonds ]
23151 23152     1  0.09572  0.15139
[ bonds ]
23151 23153     1  0.09572  0.15139
[ bonds ]
23154 23155     1  0.09572  0.15139
[ bonds ]
23154 23156     1  0.09572  0.15139
[ bonds ]
23157 23158     1  0.09572  0.15139
[ bonds ]
23157 23159     1  0.09572  0.15139
[ bonds ]
23160 23161     1  0.09572  0.15139
[ bonds ]
23160 23162     1  0.09572  0.15139
[ bonds ]
23163 23164     1  0.09572  0.15139
[ bonds ]
23163 23165     1  0.09572  0.15139
[ bonds ]
23166 23167     1  0.09572  0.15139
[ bonds ]
23166 23168     1  0.09572  0.15139
[ bonds ]
23169 23170     1  0.09572  0.15139
[ bonds ]
23169 23171     1  0.09572  0.15139
[ bonds ]
23172 23173     1  0.09572  0.15139
[ bonds ]
23172 23174     1  0.09572  0.15139
[ bonds ]
23175 23176     1  0.09572  0.15139
[ bonds ]
23175 23177     1  0.09572  0.15139
[ bonds ]
23178 23179     1  0.09572  0.15139
[ bonds ]
23178 23180     1  0.09572  0.15139
[ bonds ]
23181 23182     1  0.09572  0.15139
[ bonds ]
23181 23183     1  0.09572  0.15139
[ bonds ]
23184 23185     1  0.09572  0.15139
[ bonds ]
23184 23186     1  0.09572  0.15139
[ bonds ]
23187 23188     1  0.09572  0.15139
[ bonds ]
23187 23189     1  0.09572  0.15139
[ bonds ]
23190 23191     1  0.09572  0.15139
[ bonds ]
23190 23192     1  0.09572  0.15139
[ bonds ]
23193 23194     1  0.09572  0.15139
[ bonds ]
23193 23195     1  0.09572  0.15139
[ bonds ]
23196 23197     1  0.09572  0.15139
[ bonds ]
23196 23198     1  0.09572  0.15139
[ bonds ]
23199 23200     1  0.09572  0.15139
[ bonds ]
23199 23201     1  0.09572  0.15139
[ bonds ]
23202 23203     1  0.09572  0.15139
[ bonds ]
23202 23204     1  0.09572  0.15139
[ bonds ]
23205 23206     1  0.09572  0.15139
[ bonds ]
23205 23207     1  0.09572  0.15139
[ bonds ]
23208 23209     1  0.09572  0.15139
[ bonds ]
23208 23210     1  0.09572  0.15139
[ bonds ]
23211 23212     1  0.09572  0.15139
[ bonds ]
23211 23213     1  0.09572  0.15139
[ bonds ]
23214 23215     1  0.09572  0.15139
[ bonds ]
23214 23216     1  0.09572  0.15139
[ bonds ]
23217 23218     1  0.09572  0.15139
[ bonds ]
23217 23219     1  0.09572  0.15139
[ bonds ]
23220 23221     1  0.09572  0.15139
[ bonds ]
23220 23222     1  0.09572  0.15139
[ bonds ]
23223 23224     1  0.09572  0.15139
[ bonds ]
23223 23225     1  0.09572  0.15139
[ bonds ]
23226 23227     1  0.09572  0.15139
[ bonds ]
23226 23228     1  0.09572  0.15139
[ bonds ]
23229 23230     1  0.09572  0.15139
[ bonds ]
23229 23231     1  0.09572  0.15139
[ bonds ]
23232 23233     1  0.09572  0.15139
[ bonds ]
23232 23234     1  0.09572  0.15139
[ bonds ]
23235 23236     1  0.09572  0.15139
[ bonds ]
23235 23237     1  0.09572  0.15139
[ bonds ]
23238 23239     1  0.09572  0.15139
[ bonds ]
23238 23240     1  0.09572  0.15139
[ bonds ]
23241 23242     1  0.09572  0.15139
[ bonds ]
23241 23243     1  0.09572  0.15139
[ bonds ]
23244 23245     1  0.09572  0.15139
[ bonds ]
23244 23246     1  0.09572  0.15139
[ bonds ]
23247 23248     1  0.09572  0.15139
[ bonds ]
23247 23249     1  0.09572  0.15139
[ bonds ]
23250 23251     1  0.09572  0.15139
[ bonds ]
23250 23252     1  0.09572  0.15139
[ bonds ]
23253 23254     1  0.09572  0.15139
[ bonds ]
23253 23255     1  0.09572  0.15139
[ bonds ]
23256 23257     1  0.09572  0.15139
[ bonds ]
23256 23258     1  0.09572  0.15139
[ bonds ]
23259 23260     1  0.09572  0.15139
[ bonds ]
23259 23261     1  0.09572  0.15139
[ bonds ]
23262 23263     1  0.09572  0.15139
[ bonds ]
23262 23264     1  0.09572  0.15139
[ bonds ]
23265 23266     1  0.09572  0.15139
[ bonds ]
23265 23267     1  0.09572  0.15139
[ bonds ]
23268 23269     1  0.09572  0.15139
[ bonds ]
23268 23270     1  0.09572  0.15139
[ bonds ]
23271 23272     1  0.09572  0.15139
[ bonds ]
23271 23273     1  0.09572  0.15139
[ bonds ]
23274 23275     1  0.09572  0.15139
[ bonds ]
23274 23276     1  0.09572  0.15139
[ bonds ]
23277 23278     1  0.09572  0.15139
[ bonds ]
23277 23279     1  0.09572  0.15139
[ bonds ]
23280 23281     1  0.09572  0.15139
[ bonds ]
23280 23282     1  0.09572  0.15139
[ bonds ]
23283 23284     1  0.09572  0.15139
[ bonds ]
23283 23285     1  0.09572  0.15139
[ bonds ]
23286 23287     1  0.09572  0.15139
[ bonds ]
23286 23288     1  0.09572  0.15139
[ bonds ]
23289 23290     1  0.09572  0.15139
[ bonds ]
23289 23291     1  0.09572  0.15139
[ bonds ]
23292 23293     1  0.09572  0.15139
[ bonds ]
23292 23294     1  0.09572  0.15139
[ bonds ]
23295 23296     1  0.09572  0.15139
[ bonds ]
23295 23297     1  0.09572  0.15139
[ bonds ]
23298 23299     1  0.09572  0.15139
[ bonds ]
23298 23300     1  0.09572  0.15139
[ bonds ]
23301 23302     1  0.09572  0.15139
[ bonds ]
23301 23303     1  0.09572  0.15139
[ bonds ]
23304 23305     1  0.09572  0.15139
[ bonds ]
23304 23306     1  0.09572  0.15139
[ bonds ]
23307 23308     1  0.09572  0.15139
[ bonds ]
23307 23309     1  0.09572  0.15139
[ bonds ]
23310 23311     1  0.09572  0.15139
[ bonds ]
23310 23312     1  0.09572  0.15139
[ bonds ]
23313 23314     1  0.09572  0.15139
[ bonds ]
23313 23315     1  0.09572  0.15139
[ bonds ]
23316 23317     1  0.09572  0.15139
[ bonds ]
23316 23318     1  0.09572  0.15139
[ bonds ]
23319 23320     1  0.09572  0.15139
[ bonds ]
23319 23321     1  0.09572  0.15139
[ bonds ]
23322 23323     1  0.09572  0.15139
[ bonds ]
23322 23324     1  0.09572  0.15139
[ bonds ]
23325 23326     1  0.09572  0.15139
[ bonds ]
23325 23327     1  0.09572  0.15139
[ bonds ]
23328 23329     1  0.09572  0.15139
[ bonds ]
23328 23330     1  0.09572  0.15139
[ bonds ]
23331 23332     1  0.09572  0.15139
[ bonds ]
23331 23333     1  0.09572  0.15139
[ bonds ]
23334 23335     1  0.09572  0.15139
[ bonds ]
23334 23336     1  0.09572  0.15139
[ bonds ]
23337 23338     1  0.09572  0.15139
[ bonds ]
23337 23339     1  0.09572  0.15139
[ bonds ]
23340 23341     1  0.09572  0.15139
[ bonds ]
23340 23342     1  0.09572  0.15139
[ bonds ]
23343 23344     1  0.09572  0.15139
[ bonds ]
23343 23345     1  0.09572  0.15139
[ bonds ]
23346 23347     1  0.09572  0.15139
[ bonds ]
23346 23348     1  0.09572  0.15139
[ bonds ]
23349 23350     1  0.09572  0.15139
[ bonds ]
23349 23351     1  0.09572  0.15139
[ bonds ]
23352 23353     1  0.09572  0.15139
[ bonds ]
23352 23354     1  0.09572  0.15139
[ bonds ]
23355 23356     1  0.09572  0.15139
[ bonds ]
23355 23357     1  0.09572  0.15139
[ bonds ]
23358 23359     1  0.09572  0.15139
[ bonds ]
23358 23360     1  0.09572  0.15139
[ bonds ]
23361 23362     1  0.09572  0.15139
[ bonds ]
23361 23363     1  0.09572  0.15139
[ bonds ]
23364 23365     1  0.09572  0.15139
[ bonds ]
23364 23366     1  0.09572  0.15139
[ bonds ]
23367 23368     1  0.09572  0.15139
[ bonds ]
23367 23369     1  0.09572  0.15139
[ bonds ]
23370 23371     1  0.09572  0.15139
[ bonds ]
23370 23372     1  0.09572  0.15139
[ bonds ]
23373 23374     1  0.09572  0.15139
[ bonds ]
23373 23375     1  0.09572  0.15139
[ bonds ]
23376 23377     1  0.09572  0.15139
[ bonds ]
23376 23378     1  0.09572  0.15139
[ bonds ]
23379 23380     1  0.09572  0.15139
[ bonds ]
23379 23381     1  0.09572  0.15139
[ bonds ]
23382 23383     1  0.09572  0.15139
[ bonds ]
23382 23384     1  0.09572  0.15139
[ bonds ]
23385 23386     1  0.09572  0.15139
[ bonds ]
23385 23387     1  0.09572  0.15139
[ bonds ]
23388 23389     1  0.09572  0.15139
[ bonds ]
23388 23390     1  0.09572  0.15139
[ bonds ]
23391 23392     1  0.09572  0.15139
[ bonds ]
23391 23393     1  0.09572  0.15139
[ bonds ]
23394 23395     1  0.09572  0.15139
[ bonds ]
23394 23396     1  0.09572  0.15139
[ bonds ]
23397 23398     1  0.09572  0.15139
[ bonds ]
23397 23399     1  0.09572  0.15139
[ bonds ]
23400 23401     1  0.09572  0.15139
[ bonds ]
23400 23402     1  0.09572  0.15139
[ bonds ]
23403 23404     1  0.09572  0.15139
[ bonds ]
23403 23405     1  0.09572  0.15139
[ bonds ]
23406 23407     1  0.09572  0.15139
[ bonds ]
23406 23408     1  0.09572  0.15139
[ bonds ]
23409 23410     1  0.09572  0.15139
[ bonds ]
23409 23411     1  0.09572  0.15139
[ bonds ]
23412 23413     1  0.09572  0.15139
[ bonds ]
23412 23414     1  0.09572  0.15139
[ bonds ]
23415 23416     1  0.09572  0.15139
[ bonds ]
23415 23417     1  0.09572  0.15139
[ bonds ]
23418 23419     1  0.09572  0.15139
[ bonds ]
23418 23420     1  0.09572  0.15139
[ bonds ]
23421 23422     1  0.09572  0.15139
[ bonds ]
23421 23423     1  0.09572  0.15139
[ bonds ]
23424 23425     1  0.09572  0.15139
[ bonds ]
23424 23426     1  0.09572  0.15139
[ bonds ]
23427 23428     1  0.09572  0.15139
[ bonds ]
23427 23429     1  0.09572  0.15139
[ bonds ]
23430 23431     1  0.09572  0.15139
[ bonds ]
23430 23432     1  0.09572  0.15139
[ bonds ]
23433 23434     1  0.09572  0.15139
[ bonds ]
23433 23435     1  0.09572  0.15139
[ bonds ]
23436 23437     1  0.09572  0.15139
[ bonds ]
23436 23438     1  0.09572  0.15139
[ bonds ]
23439 23440     1  0.09572  0.15139
[ bonds ]
23439 23441     1  0.09572  0.15139
[ bonds ]
23442 23443     1  0.09572  0.15139
[ bonds ]
23442 23444     1  0.09572  0.15139
[ bonds ]
23445 23446     1  0.09572  0.15139
[ bonds ]
23445 23447     1  0.09572  0.15139
[ bonds ]
23448 23449     1  0.09572  0.15139
[ bonds ]
23448 23450     1  0.09572  0.15139
[ bonds ]
23451 23452     1  0.09572  0.15139
[ bonds ]
23451 23453     1  0.09572  0.15139
[ bonds ]
23454 23455     1  0.09572  0.15139
[ bonds ]
23454 23456     1  0.09572  0.15139
[ bonds ]
23457 23458     1  0.09572  0.15139
[ bonds ]
23457 23459     1  0.09572  0.15139
[ bonds ]
23460 23461     1  0.09572  0.15139
[ bonds ]
23460 23462     1  0.09572  0.15139
[ bonds ]
23463 23464     1  0.09572  0.15139
[ bonds ]
23463 23465     1  0.09572  0.15139
[ bonds ]
23466 23467     1  0.09572  0.15139
[ bonds ]
23466 23468     1  0.09572  0.15139
[ bonds ]
23469 23470     1  0.09572  0.15139
[ bonds ]
23469 23471     1  0.09572  0.15139
[ bonds ]
23472 23473     1  0.09572  0.15139
[ bonds ]
23472 23474     1  0.09572  0.15139
[ bonds ]
23475 23476     1  0.09572  0.15139
[ bonds ]
23475 23477     1  0.09572  0.15139
[ bonds ]
23478 23479     1  0.09572  0.15139
[ bonds ]
23478 23480     1  0.09572  0.15139
[ bonds ]
23481 23482     1  0.09572  0.15139
[ bonds ]
23481 23483     1  0.09572  0.15139
[ bonds ]
23484 23485     1  0.09572  0.15139
[ bonds ]
23484 23486     1  0.09572  0.15139
[ bonds ]
23487 23488     1  0.09572  0.15139
[ bonds ]
23487 23489     1  0.09572  0.15139
[ bonds ]
23490 23491     1  0.09572  0.15139
[ bonds ]
23490 23492     1  0.09572  0.15139
[ bonds ]
23493 23494     1  0.09572  0.15139
[ bonds ]
23493 23495     1  0.09572  0.15139
[ bonds ]
23496 23497     1  0.09572  0.15139
[ bonds ]
23496 23498     1  0.09572  0.15139
[ bonds ]
23499 23500     1  0.09572  0.15139
[ bonds ]
23499 23501     1  0.09572  0.15139
[ bonds ]
23502 23503     1  0.09572  0.15139
[ bonds ]
23502 23504     1  0.09572  0.15139
[ bonds ]
23505 23506     1  0.09572  0.15139
[ bonds ]
23505 23507     1  0.09572  0.15139
[ bonds ]
23508 23509     1  0.09572  0.15139
[ bonds ]
23508 23510     1  0.09572  0.15139
[ bonds ]
23511 23512     1  0.09572  0.15139
[ bonds ]
23511 23513     1  0.09572  0.15139
[ bonds ]
23514 23515     1  0.09572  0.15139
[ bonds ]
23514 23516     1  0.09572  0.15139
[ bonds ]
23517 23518     1  0.09572  0.15139
[ bonds ]
23517 23519     1  0.09572  0.15139
[ bonds ]
23520 23521     1  0.09572  0.15139
[ bonds ]
23520 23522     1  0.09572  0.15139
[ bonds ]
23523 23524     1  0.09572  0.15139
[ bonds ]
23523 23525     1  0.09572  0.15139
[ bonds ]
23526 23527     1  0.09572  0.15139
[ bonds ]
23526 23528     1  0.09572  0.15139
[ bonds ]
23529 23530     1  0.09572  0.15139
[ bonds ]
23529 23531     1  0.09572  0.15139
[ bonds ]
23532 23533     1  0.09572  0.15139
[ bonds ]
23532 23534     1  0.09572  0.15139
[ bonds ]
23535 23536     1  0.09572  0.15139
[ bonds ]
23535 23537     1  0.09572  0.15139
[ bonds ]
23538 23539     1  0.09572  0.15139
[ bonds ]
23538 23540     1  0.09572  0.15139
[ bonds ]
23541 23542     1  0.09572  0.15139
[ bonds ]
23541 23543     1  0.09572  0.15139
[ bonds ]
23544 23545     1  0.09572  0.15139
[ bonds ]
23544 23546     1  0.09572  0.15139
[ bonds ]
23547 23548     1  0.09572  0.15139
[ bonds ]
23547 23549     1  0.09572  0.15139
[ bonds ]
23550 23551     1  0.09572  0.15139
[ bonds ]
23550 23552     1  0.09572  0.15139
[ bonds ]
23553 23554     1  0.09572  0.15139
[ bonds ]
23553 23555     1  0.09572  0.15139
[ bonds ]
23556 23557     1  0.09572  0.15139
[ bonds ]
23556 23558     1  0.09572  0.15139
[ bonds ]
23559 23560     1  0.09572  0.15139
[ bonds ]
23559 23561     1  0.09572  0.15139
[ bonds ]
23562 23563     1  0.09572  0.15139
[ bonds ]
23562 23564     1  0.09572  0.15139
[ bonds ]
23565 23566     1  0.09572  0.15139
[ bonds ]
23565 23567     1  0.09572  0.15139
[ bonds ]
23568 23569     1  0.09572  0.15139
[ bonds ]
23568 23570     1  0.09572  0.15139
[ bonds ]
23571 23572     1  0.09572  0.15139
[ bonds ]
23571 23573     1  0.09572  0.15139
[ bonds ]
23574 23575     1  0.09572  0.15139
[ bonds ]
23574 23576     1  0.09572  0.15139
[ bonds ]
23577 23578     1  0.09572  0.15139
[ bonds ]
23577 23579     1  0.09572  0.15139
[ bonds ]
23580 23581     1  0.09572  0.15139
[ bonds ]
23580 23582     1  0.09572  0.15139
[ bonds ]
23583 23584     1  0.09572  0.15139
[ bonds ]
23583 23585     1  0.09572  0.15139
[ bonds ]
23586 23587     1  0.09572  0.15139
[ bonds ]
23586 23588     1  0.09572  0.15139
[ bonds ]
23589 23590     1  0.09572  0.15139
[ bonds ]
23589 23591     1  0.09572  0.15139
[ bonds ]
23592 23593     1  0.09572  0.15139
[ bonds ]
23592 23594     1  0.09572  0.15139
[ bonds ]
23595 23596     1  0.09572  0.15139
[ bonds ]
23595 23597     1  0.09572  0.15139
[ bonds ]
23598 23599     1  0.09572  0.15139
[ bonds ]
23598 23600     1  0.09572  0.15139
[ bonds ]
23601 23602     1  0.09572  0.15139
[ bonds ]
23601 23603     1  0.09572  0.15139
[ bonds ]
23604 23605     1  0.09572  0.15139
[ bonds ]
23604 23606     1  0.09572  0.15139
[ bonds ]
23607 23608     1  0.09572  0.15139
[ bonds ]
23607 23609     1  0.09572  0.15139
[ bonds ]
23610 23611     1  0.09572  0.15139
[ bonds ]
23610 23612     1  0.09572  0.15139
[ bonds ]
23613 23614     1  0.09572  0.15139
[ bonds ]
23613 23615     1  0.09572  0.15139
[ bonds ]
23616 23617     1  0.09572  0.15139
[ bonds ]
23616 23618     1  0.09572  0.15139
[ bonds ]
23619 23620     1  0.09572  0.15139
[ bonds ]
23619 23621     1  0.09572  0.15139
[ bonds ]
23622 23623     1  0.09572  0.15139
[ bonds ]
23622 23624     1  0.09572  0.15139
[ bonds ]
23625 23626     1  0.09572  0.15139
[ bonds ]
23625 23627     1  0.09572  0.15139
[ bonds ]
23628 23629     1  0.09572  0.15139
[ bonds ]
23628 23630     1  0.09572  0.15139
[ bonds ]
23631 23632     1  0.09572  0.15139
[ bonds ]
23631 23633     1  0.09572  0.15139
[ bonds ]
23634 23635     1  0.09572  0.15139
[ bonds ]
23634 23636     1  0.09572  0.15139
[ bonds ]
23637 23638     1  0.09572  0.15139
[ bonds ]
23637 23639     1  0.09572  0.15139
[ bonds ]
23640 23641     1  0.09572  0.15139
[ bonds ]
23640 23642     1  0.09572  0.15139
[ bonds ]
23643 23644     1  0.09572  0.15139
[ bonds ]
23643 23645     1  0.09572  0.15139
[ bonds ]
23646 23647     1  0.09572  0.15139
[ bonds ]
23646 23648     1  0.09572  0.15139
[ bonds ]
23649 23650     1  0.09572  0.15139
[ bonds ]
23649 23651     1  0.09572  0.15139
[ bonds ]
23652 23653     1  0.09572  0.15139
[ bonds ]
23652 23654     1  0.09572  0.15139
[ bonds ]
23655 23656     1  0.09572  0.15139
[ bonds ]
23655 23657     1  0.09572  0.15139
[ bonds ]
23658 23659     1  0.09572  0.15139
[ bonds ]
23658 23660     1  0.09572  0.15139
[ bonds ]
23661 23662     1  0.09572  0.15139
[ bonds ]
23661 23663     1  0.09572  0.15139
[ bonds ]
23664 23665     1  0.09572  0.15139
[ bonds ]
23664 23666     1  0.09572  0.15139
[ bonds ]
23667 23668     1  0.09572  0.15139
[ bonds ]
23667 23669     1  0.09572  0.15139
[ bonds ]
23670 23671     1  0.09572  0.15139
[ bonds ]
23670 23672     1  0.09572  0.15139
[ bonds ]
23673 23674     1  0.09572  0.15139
[ bonds ]
23673 23675     1  0.09572  0.15139
[ bonds ]
23676 23677     1  0.09572  0.15139
[ bonds ]
23676 23678     1  0.09572  0.15139
[ bonds ]
23679 23680     1  0.09572  0.15139
[ bonds ]
23679 23681     1  0.09572  0.15139
[ bonds ]
23682 23683     1  0.09572  0.15139
[ bonds ]
23682 23684     1  0.09572  0.15139
[ bonds ]
23685 23686     1  0.09572  0.15139
[ bonds ]
23685 23687     1  0.09572  0.15139
[ bonds ]
23688 23689     1  0.09572  0.15139
[ bonds ]
23688 23690     1  0.09572  0.15139
[ bonds ]
23691 23692     1  0.09572  0.15139
[ bonds ]
23691 23693     1  0.09572  0.15139
[ bonds ]
23694 23695     1  0.09572  0.15139
[ bonds ]
23694 23696     1  0.09572  0.15139
[ bonds ]
23697 23698     1  0.09572  0.15139
[ bonds ]
23697 23699     1  0.09572  0.15139
[ bonds ]
23700 23701     1  0.09572  0.15139
[ bonds ]
23700 23702     1  0.09572  0.15139
[ bonds ]
23703 23704     1  0.09572  0.15139
[ bonds ]
23703 23705     1  0.09572  0.15139
[ bonds ]
23706 23707     1  0.09572  0.15139
[ bonds ]
23706 23708     1  0.09572  0.15139
[ bonds ]
23709 23710     1  0.09572  0.15139
[ bonds ]
23709 23711     1  0.09572  0.15139
[ bonds ]
23712 23713     1  0.09572  0.15139
[ bonds ]
23712 23714     1  0.09572  0.15139
[ bonds ]
23715 23716     1  0.09572  0.15139
[ bonds ]
23715 23717     1  0.09572  0.15139
[ bonds ]
23718 23719     1  0.09572  0.15139
[ bonds ]
23718 23720     1  0.09572  0.15139
[ bonds ]
23721 23722     1  0.09572  0.15139
[ bonds ]
23721 23723     1  0.09572  0.15139
[ bonds ]
23724 23725     1  0.09572  0.15139
[ bonds ]
23724 23726     1  0.09572  0.15139
[ bonds ]
23727 23728     1  0.09572  0.15139
[ bonds ]
23727 23729     1  0.09572  0.15139
[ bonds ]
23730 23731     1  0.09572  0.15139
[ bonds ]
23730 23732     1  0.09572  0.15139
[ bonds ]
23733 23734     1  0.09572  0.15139
[ bonds ]
23733 23735     1  0.09572  0.15139
[ bonds ]
23736 23737     1  0.09572  0.15139
[ bonds ]
23736 23738     1  0.09572  0.15139
[ bonds ]
23739 23740     1  0.09572  0.15139
[ bonds ]
23739 23741     1  0.09572  0.15139
[ bonds ]
23742 23743     1  0.09572  0.15139
[ bonds ]
23742 23744     1  0.09572  0.15139
[ bonds ]
23745 23746     1  0.09572  0.15139
[ bonds ]
23745 23747     1  0.09572  0.15139
[ bonds ]
23748 23749     1  0.09572  0.15139
[ bonds ]
23748 23750     1  0.09572  0.15139
[ bonds ]
23751 23752     1  0.09572  0.15139
[ bonds ]
23751 23753     1  0.09572  0.15139
[ bonds ]
23754 23755     1  0.09572  0.15139
[ bonds ]
23754 23756     1  0.09572  0.15139
[ bonds ]
23757 23758     1  0.09572  0.15139
[ bonds ]
23757 23759     1  0.09572  0.15139
[ bonds ]
23760 23761     1  0.09572  0.15139
[ bonds ]
23760 23762     1  0.09572  0.15139
[ bonds ]
23763 23764     1  0.09572  0.15139
[ bonds ]
23763 23765     1  0.09572  0.15139
[ bonds ]
23766 23767     1  0.09572  0.15139
[ bonds ]
23766 23768     1  0.09572  0.15139
[ bonds ]
23769 23770     1  0.09572  0.15139
[ bonds ]
23769 23771     1  0.09572  0.15139
[ bonds ]
23772 23773     1  0.09572  0.15139
[ bonds ]
23772 23774     1  0.09572  0.15139
[ bonds ]
23775 23776     1  0.09572  0.15139
[ bonds ]
23775 23777     1  0.09572  0.15139
[ bonds ]
23778 23779     1  0.09572  0.15139
[ bonds ]
23778 23780     1  0.09572  0.15139
[ bonds ]
23781 23782     1  0.09572  0.15139
[ bonds ]
23781 23783     1  0.09572  0.15139
[ bonds ]
23784 23785     1  0.09572  0.15139
[ bonds ]
23784 23786     1  0.09572  0.15139
[ bonds ]
23787 23788     1  0.09572  0.15139
[ bonds ]
23787 23789     1  0.09572  0.15139
[ bonds ]
23790 23791     1  0.09572  0.15139
[ bonds ]
23790 23792     1  0.09572  0.15139
[ bonds ]
23793 23794     1  0.09572  0.15139
[ bonds ]
23793 23795     1  0.09572  0.15139
[ bonds ]
23796 23797     1  0.09572  0.15139
[ bonds ]
23796 23798     1  0.09572  0.15139
[ bonds ]
23799 23800     1  0.09572  0.15139
[ bonds ]
23799 23801     1  0.09572  0.15139
[ bonds ]
23802 23803     1  0.09572  0.15139
[ bonds ]
23802 23804     1  0.09572  0.15139
[ bonds ]
23805 23806     1  0.09572  0.15139
[ bonds ]
23805 23807     1  0.09572  0.15139
[ bonds ]
23808 23809     1  0.09572  0.15139
[ bonds ]
23808 23810     1  0.09572  0.15139
[ bonds ]
23811 23812     1  0.09572  0.15139
[ bonds ]
23811 23813     1  0.09572  0.15139
[ bonds ]
23814 23815     1  0.09572  0.15139
[ bonds ]
23814 23816     1  0.09572  0.15139
[ bonds ]
23817 23818     1  0.09572  0.15139
[ bonds ]
23817 23819     1  0.09572  0.15139
[ bonds ]
23820 23821     1  0.09572  0.15139
[ bonds ]
23820 23822     1  0.09572  0.15139
[ bonds ]
23823 23824     1  0.09572  0.15139
[ bonds ]
23823 23825     1  0.09572  0.15139
[ bonds ]
23826 23827     1  0.09572  0.15139
[ bonds ]
23826 23828     1  0.09572  0.15139
[ bonds ]
23829 23830     1  0.09572  0.15139
[ bonds ]
23829 23831     1  0.09572  0.15139
[ bonds ]
23832 23833     1  0.09572  0.15139
[ bonds ]
23832 23834     1  0.09572  0.15139
[ bonds ]
23835 23836     1  0.09572  0.15139
[ bonds ]
23835 23837     1  0.09572  0.15139
[ bonds ]
23838 23839     1  0.09572  0.15139
[ bonds ]
23838 23840     1  0.09572  0.15139
[ bonds ]
23841 23842     1  0.09572  0.15139
[ bonds ]
23841 23843     1  0.09572  0.15139
[ bonds ]
23844 23845     1  0.09572  0.15139
[ bonds ]
23844 23846     1  0.09572  0.15139
[ bonds ]
23847 23848     1  0.09572  0.15139
[ bonds ]
23847 23849     1  0.09572  0.15139
[ bonds ]
23850 23851     1  0.09572  0.15139
[ bonds ]
23850 23852     1  0.09572  0.15139
[ bonds ]
23853 23854     1  0.09572  0.15139
[ bonds ]
23853 23855     1  0.09572  0.15139
[ bonds ]
23856 23857     1  0.09572  0.15139
[ bonds ]
23856 23858     1  0.09572  0.15139
[ bonds ]
23859 23860     1  0.09572  0.15139
[ bonds ]
23859 23861     1  0.09572  0.15139
[ bonds ]
23862 23863     1  0.09572  0.15139
[ bonds ]
23862 23864     1  0.09572  0.15139
[ bonds ]
23865 23866     1  0.09572  0.15139
[ bonds ]
23865 23867     1  0.09572  0.15139
[ bonds ]
23868 23869     1  0.09572  0.15139
[ bonds ]
23868 23870     1  0.09572  0.15139
[ bonds ]
23871 23872     1  0.09572  0.15139
[ bonds ]
23871 23873     1  0.09572  0.15139
[ bonds ]
23874 23875     1  0.09572  0.15139
[ bonds ]
23874 23876     1  0.09572  0.15139
[ bonds ]
23877 23878     1  0.09572  0.15139
[ bonds ]
23877 23879     1  0.09572  0.15139
[ bonds ]
23880 23881     1  0.09572  0.15139
[ bonds ]
23880 23882     1  0.09572  0.15139
[ bonds ]
23883 23884     1  0.09572  0.15139
[ bonds ]
23883 23885     1  0.09572  0.15139
[ bonds ]
23886 23887     1  0.09572  0.15139
[ bonds ]
23886 23888     1  0.09572  0.15139
[ bonds ]
23889 23890     1  0.09572  0.15139
[ bonds ]
23889 23891     1  0.09572  0.15139
[ bonds ]
23892 23893     1  0.09572  0.15139
[ bonds ]
23892 23894     1  0.09572  0.15139
[ bonds ]
23895 23896     1  0.09572  0.15139
[ bonds ]
23895 23897     1  0.09572  0.15139
[ bonds ]
23898 23899     1  0.09572  0.15139
[ bonds ]
23898 23900     1  0.09572  0.15139
[ bonds ]
23901 23902     1  0.09572  0.15139
[ bonds ]
23901 23903     1  0.09572  0.15139
[ bonds ]
23904 23905     1  0.09572  0.15139
[ bonds ]
23904 23906     1  0.09572  0.15139
[ bonds ]
23907 23908     1  0.09572  0.15139
[ bonds ]
23907 23909     1  0.09572  0.15139
[ bonds ]
23910 23911     1  0.09572  0.15139
[ bonds ]
23910 23912     1  0.09572  0.15139
[ bonds ]
23913 23914     1  0.09572  0.15139
[ bonds ]
23913 23915     1  0.09572  0.15139
[ bonds ]
23916 23917     1  0.09572  0.15139
[ bonds ]
23916 23918     1  0.09572  0.15139
[ bonds ]
23919 23920     1  0.09572  0.15139
[ bonds ]
23919 23921     1  0.09572  0.15139
[ bonds ]
23922 23923     1  0.09572  0.15139
[ bonds ]
23922 23924     1  0.09572  0.15139
[ bonds ]
23925 23926     1  0.09572  0.15139
[ bonds ]
23925 23927     1  0.09572  0.15139
[ bonds ]
23928 23929     1  0.09572  0.15139
[ bonds ]
23928 23930     1  0.09572  0.15139
[ bonds ]
23931 23932     1  0.09572  0.15139
[ bonds ]
23931 23933     1  0.09572  0.15139
[ bonds ]
23934 23935     1  0.09572  0.15139
[ bonds ]
23934 23936     1  0.09572  0.15139
[ bonds ]
23937 23938     1  0.09572  0.15139
[ bonds ]
23937 23939     1  0.09572  0.15139
[ bonds ]
23940 23941     1  0.09572  0.15139
[ bonds ]
23940 23942     1  0.09572  0.15139
[ bonds ]
23943 23944     1  0.09572  0.15139
[ bonds ]
23943 23945     1  0.09572  0.15139
[ bonds ]
23946 23947     1  0.09572  0.15139
[ bonds ]
23946 23948     1  0.09572  0.15139
[ bonds ]
23949 23950     1  0.09572  0.15139
[ bonds ]
23949 23951     1  0.09572  0.15139
[ bonds ]
23952 23953     1  0.09572  0.15139
[ bonds ]
23952 23954     1  0.09572  0.15139
[ bonds ]
23955 23956     1  0.09572  0.15139
[ bonds ]
23955 23957     1  0.09572  0.15139
[ bonds ]
23958 23959     1  0.09572  0.15139
[ bonds ]
23958 23960     1  0.09572  0.15139
[ bonds ]
23961 23962     1  0.09572  0.15139
[ bonds ]
23961 23963     1  0.09572  0.15139
[ bonds ]
23964 23965     1  0.09572  0.15139
[ bonds ]
23964 23966     1  0.09572  0.15139
[ bonds ]
23967 23968     1  0.09572  0.15139
[ bonds ]
23967 23969     1  0.09572  0.15139
[ bonds ]
23970 23971     1  0.09572  0.15139
[ bonds ]
23970 23972     1  0.09572  0.15139
[ bonds ]
23973 23974     1  0.09572  0.15139
[ bonds ]
23973 23975     1  0.09572  0.15139
[ bonds ]
23976 23977     1  0.09572  0.15139
[ bonds ]
23976 23978     1  0.09572  0.15139
[ bonds ]
23979 23980     1  0.09572  0.15139
[ bonds ]
23979 23981     1  0.09572  0.15139
[ bonds ]
23982 23983     1  0.09572  0.15139
[ bonds ]
23982 23984     1  0.09572  0.15139
[ bonds ]
23985 23986     1  0.09572  0.15139
[ bonds ]
23985 23987     1  0.09572  0.15139
[ bonds ]
23988 23989     1  0.09572  0.15139
[ bonds ]
23988 23990     1  0.09572  0.15139
[ bonds ]
23991 23992     1  0.09572  0.15139
[ bonds ]
23991 23993     1  0.09572  0.15139
[ bonds ]
23994 23995     1  0.09572  0.15139
[ bonds ]
23994 23996     1  0.09572  0.15139
[ bonds ]
23997 23998     1  0.09572  0.15139
[ bonds ]
23997 23999     1  0.09572  0.15139
[ bonds ]
24000 24001     1  0.09572  0.15139
[ bonds ]
24000 24002     1  0.09572  0.15139
[ bonds ]
24003 24004     1  0.09572  0.15139
[ bonds ]
24003 24005     1  0.09572  0.15139
[ bonds ]
24006 24007     1  0.09572  0.15139
[ bonds ]
24006 24008     1  0.09572  0.15139
[ bonds ]
24009 24010     1  0.09572  0.15139
[ bonds ]
24009 24011     1  0.09572  0.15139
[ bonds ]
24012 24013     1  0.09572  0.15139
[ bonds ]
24012 24014     1  0.09572  0.15139
[ bonds ]
24015 24016     1  0.09572  0.15139
[ bonds ]
24015 24017     1  0.09572  0.15139
[ bonds ]
24018 24019     1  0.09572  0.15139
[ bonds ]
24018 24020     1  0.09572  0.15139
[ bonds ]
24021 24022     1  0.09572  0.15139
[ bonds ]
24021 24023     1  0.09572  0.15139
[ bonds ]
24024 24025     1  0.09572  0.15139
[ bonds ]
24024 24026     1  0.09572  0.15139
[ bonds ]
24027 24028     1  0.09572  0.15139
[ bonds ]
24027 24029     1  0.09572  0.15139
[ bonds ]
24030 24031     1  0.09572  0.15139
[ bonds ]
24030 24032     1  0.09572  0.15139
[ bonds ]
24033 24034     1  0.09572  0.15139
[ bonds ]
24033 24035     1  0.09572  0.15139
[ bonds ]
24036 24037     1  0.09572  0.15139
[ bonds ]
24036 24038     1  0.09572  0.15139
[ bonds ]
24039 24040     1  0.09572  0.15139
[ bonds ]
24039 24041     1  0.09572  0.15139
[ bonds ]
24042 24043     1  0.09572  0.15139
[ bonds ]
24042 24044     1  0.09572  0.15139
[ bonds ]
24045 24046     1  0.09572  0.15139
[ bonds ]
24045 24047     1  0.09572  0.15139
[ bonds ]
24048 24049     1  0.09572  0.15139
[ bonds ]
24048 24050     1  0.09572  0.15139
[ bonds ]
24051 24052     1  0.09572  0.15139
[ bonds ]
24051 24053     1  0.09572  0.15139
[ bonds ]
24054 24055     1  0.09572  0.15139
[ bonds ]
24054 24056     1  0.09572  0.15139
[ bonds ]
24057 24058     1  0.09572  0.15139
[ bonds ]
24057 24059     1  0.09572  0.15139
[ bonds ]
24060 24061     1  0.09572  0.15139
[ bonds ]
24060 24062     1  0.09572  0.15139
[ bonds ]
24063 24064     1  0.09572  0.15139
[ bonds ]
24063 24065     1  0.09572  0.15139
[ bonds ]
24066 24067     1  0.09572  0.15139
[ bonds ]
24066 24068     1  0.09572  0.15139
[ bonds ]
24069 24070     1  0.09572  0.15139
[ bonds ]
24069 24071     1  0.09572  0.15139
[ bonds ]
24072 24073     1  0.09572  0.15139
[ bonds ]
24072 24074     1  0.09572  0.15139
[ bonds ]
24075 24076     1  0.09572  0.15139
[ bonds ]
24075 24077     1  0.09572  0.15139
[ bonds ]
24078 24079     1  0.09572  0.15139
[ bonds ]
24078 24080     1  0.09572  0.15139
[ bonds ]
24081 24082     1  0.09572  0.15139
[ bonds ]
24081 24083     1  0.09572  0.15139
[ bonds ]
24084 24085     1  0.09572  0.15139
[ bonds ]
24084 24086     1  0.09572  0.15139
[ bonds ]
24087 24088     1  0.09572  0.15139
[ bonds ]
24087 24089     1  0.09572  0.15139
[ bonds ]
24090 24091     1  0.09572  0.15139
[ bonds ]
24090 24092     1  0.09572  0.15139
[ bonds ]
24093 24094     1  0.09572  0.15139
[ bonds ]
24093 24095     1  0.09572  0.15139
[ bonds ]
24096 24097     1  0.09572  0.15139
[ bonds ]
24096 24098     1  0.09572  0.15139
[ bonds ]
24099 24100     1  0.09572  0.15139
[ bonds ]
24099 24101     1  0.09572  0.15139
[ bonds ]
24102 24103     1  0.09572  0.15139
[ bonds ]
24102 24104     1  0.09572  0.15139
[ bonds ]
24105 24106     1  0.09572  0.15139
[ bonds ]
24105 24107     1  0.09572  0.15139
[ bonds ]
24108 24109     1  0.09572  0.15139
[ bonds ]
24108 24110     1  0.09572  0.15139
[ bonds ]
24111 24112     1  0.09572  0.15139
[ bonds ]
24111 24113     1  0.09572  0.15139
[ bonds ]
24114 24115     1  0.09572  0.15139
[ bonds ]
24114 24116     1  0.09572  0.15139
[ bonds ]
24117 24118     1  0.09572  0.15139
[ bonds ]
24117 24119     1  0.09572  0.15139
[ bonds ]
24120 24121     1  0.09572  0.15139
[ bonds ]
24120 24122     1  0.09572  0.15139
[ bonds ]
24123 24124     1  0.09572  0.15139
[ bonds ]
24123 24125     1  0.09572  0.15139
[ bonds ]
24126 24127     1  0.09572  0.15139
[ bonds ]
24126 24128     1  0.09572  0.15139
[ bonds ]
24129 24130     1  0.09572  0.15139
[ bonds ]
24129 24131     1  0.09572  0.15139
[ bonds ]
24132 24133     1  0.09572  0.15139
[ bonds ]
24132 24134     1  0.09572  0.15139
[ bonds ]
24135 24136     1  0.09572  0.15139
[ bonds ]
24135 24137     1  0.09572  0.15139
[ bonds ]
24138 24139     1  0.09572  0.15139
[ bonds ]
24138 24140     1  0.09572  0.15139
[ bonds ]
24141 24142     1  0.09572  0.15139
[ bonds ]
24141 24143     1  0.09572  0.15139
[ bonds ]
24144 24145     1  0.09572  0.15139
[ bonds ]
24144 24146     1  0.09572  0.15139
[ bonds ]
24147 24148     1  0.09572  0.15139
[ bonds ]
24147 24149     1  0.09572  0.15139
[ bonds ]
24150 24151     1  0.09572  0.15139
[ bonds ]
24150 24152     1  0.09572  0.15139
[ bonds ]
24153 24154     1  0.09572  0.15139
[ bonds ]
24153 24155     1  0.09572  0.15139
[ bonds ]
24156 24157     1  0.09572  0.15139
[ bonds ]
24156 24158     1  0.09572  0.15139
[ bonds ]
24159 24160     1  0.09572  0.15139
[ bonds ]
24159 24161     1  0.09572  0.15139
[ bonds ]
24162 24163     1  0.09572  0.15139
[ bonds ]
24162 24164     1  0.09572  0.15139
[ bonds ]
24165 24166     1  0.09572  0.15139
[ bonds ]
24165 24167     1  0.09572  0.15139
[ bonds ]
24168 24169     1  0.09572  0.15139
[ bonds ]
24168 24170     1  0.09572  0.15139
[ bonds ]
24171 24172     1  0.09572  0.15139
[ bonds ]
24171 24173     1  0.09572  0.15139
[ bonds ]
24174 24175     1  0.09572  0.15139
[ bonds ]
24174 24176     1  0.09572  0.15139
[ bonds ]
24177 24178     1  0.09572  0.15139
[ bonds ]
24177 24179     1  0.09572  0.15139
[ bonds ]
24180 24181     1  0.09572  0.15139
[ bonds ]
24180 24182     1  0.09572  0.15139
[ bonds ]
24183 24184     1  0.09572  0.15139
[ bonds ]
24183 24185     1  0.09572  0.15139
[ bonds ]
24186 24187     1  0.09572  0.15139
[ bonds ]
24186 24188     1  0.09572  0.15139
[ bonds ]
24189 24190     1  0.09572  0.15139
[ bonds ]
24189 24191     1  0.09572  0.15139
[ bonds ]
24192 24193     1  0.09572  0.15139
[ bonds ]
24192 24194     1  0.09572  0.15139
[ bonds ]
24195 24196     1  0.09572  0.15139
[ bonds ]
24195 24197     1  0.09572  0.15139
[ bonds ]
24198 24199     1  0.09572  0.15139
[ bonds ]
24198 24200     1  0.09572  0.15139
[ bonds ]
24201 24202     1  0.09572  0.15139
[ bonds ]
24201 24203     1  0.09572  0.15139
[ bonds ]
24204 24205     1  0.09572  0.15139
[ bonds ]
24204 24206     1  0.09572  0.15139
[ bonds ]
24207 24208     1  0.09572  0.15139
[ bonds ]
24207 24209     1  0.09572  0.15139
[ bonds ]
24210 24211     1  0.09572  0.15139
[ bonds ]
24210 24212     1  0.09572  0.15139
[ bonds ]
24213 24214     1  0.09572  0.15139
[ bonds ]
24213 24215     1  0.09572  0.15139
[ bonds ]
24216 24217     1  0.09572  0.15139
[ bonds ]
24216 24218     1  0.09572  0.15139
[ bonds ]
24219 24220     1  0.09572  0.15139
[ bonds ]
24219 24221     1  0.09572  0.15139
[ bonds ]
24222 24223     1  0.09572  0.15139
[ bonds ]
24222 24224     1  0.09572  0.15139
[ bonds ]
24225 24226     1  0.09572  0.15139
[ bonds ]
24225 24227     1  0.09572  0.15139
[ bonds ]
24228 24229     1  0.09572  0.15139
[ bonds ]
24228 24230     1  0.09572  0.15139
[ bonds ]
24231 24232     1  0.09572  0.15139
[ bonds ]
24231 24233     1  0.09572  0.15139
[ bonds ]
24234 24235     1  0.09572  0.15139
[ bonds ]
24234 24236     1  0.09572  0.15139
[ bonds ]
24237 24238     1  0.09572  0.15139
[ bonds ]
24237 24239     1  0.09572  0.15139
[ bonds ]
24240 24241     1  0.09572  0.15139
[ bonds ]
24240 24242     1  0.09572  0.15139
[ bonds ]
24243 24244     1  0.09572  0.15139
[ bonds ]
24243 24245     1  0.09572  0.15139
[ bonds ]
24246 24247     1  0.09572  0.15139
[ bonds ]
24246 24248     1  0.09572  0.15139
[ bonds ]
24249 24250     1  0.09572  0.15139
[ bonds ]
24249 24251     1  0.09572  0.15139
[ bonds ]
24252 24253     1  0.09572  0.15139
[ bonds ]
24252 24254     1  0.09572  0.15139
[ bonds ]
24255 24256     1  0.09572  0.15139
[ bonds ]
24255 24257     1  0.09572  0.15139
[ bonds ]
24258 24259     1  0.09572  0.15139
[ bonds ]
24258 24260     1  0.09572  0.15139
[ bonds ]
24261 24262     1  0.09572  0.15139
[ bonds ]
24261 24263     1  0.09572  0.15139
[ bonds ]
24264 24265     1  0.09572  0.15139
[ bonds ]
24264 24266     1  0.09572  0.15139
[ bonds ]
24267 24268     1  0.09572  0.15139
[ bonds ]
24267 24269     1  0.09572  0.15139
[ bonds ]
24270 24271     1  0.09572  0.15139
[ bonds ]
24270 24272     1  0.09572  0.15139
[ bonds ]
24273 24274     1  0.09572  0.15139
[ bonds ]
24273 24275     1  0.09572  0.15139
[ bonds ]
24276 24277     1  0.09572  0.15139
[ bonds ]
24276 24278     1  0.09572  0.15139
[ bonds ]
24279 24280     1  0.09572  0.15139
[ bonds ]
24279 24281     1  0.09572  0.15139
[ bonds ]
24282 24283     1  0.09572  0.15139
[ bonds ]
24282 24284     1  0.09572  0.15139
[ bonds ]
24285 24286     1  0.09572  0.15139
[ bonds ]
24285 24287     1  0.09572  0.15139
[ bonds ]
24288 24289     1  0.09572  0.15139
[ bonds ]
24288 24290     1  0.09572  0.15139
[ bonds ]
24291 24292     1  0.09572  0.15139
[ bonds ]
24291 24293     1  0.09572  0.15139
[ bonds ]
24294 24295     1  0.09572  0.15139
[ bonds ]
24294 24296     1  0.09572  0.15139
[ bonds ]
24297 24298     1  0.09572  0.15139
[ bonds ]
24297 24299     1  0.09572  0.15139
[ bonds ]
24300 24301     1  0.09572  0.15139
[ bonds ]
24300 24302     1  0.09572  0.15139
[ bonds ]
24303 24304     1  0.09572  0.15139
[ bonds ]
24303 24305     1  0.09572  0.15139
[ bonds ]
24306 24307     1  0.09572  0.15139
[ bonds ]
24306 24308     1  0.09572  0.15139
[ bonds ]
24309 24310     1  0.09572  0.15139
[ bonds ]
24309 24311     1  0.09572  0.15139
[ bonds ]
24312 24313     1  0.09572  0.15139
[ bonds ]
24312 24314     1  0.09572  0.15139
[ bonds ]
24315 24316     1  0.09572  0.15139
[ bonds ]
24315 24317     1  0.09572  0.15139
[ bonds ]
24318 24319     1  0.09572  0.15139
[ bonds ]
24318 24320     1  0.09572  0.15139
[ bonds ]
24321 24322     1  0.09572  0.15139
[ bonds ]
24321 24323     1  0.09572  0.15139
[ bonds ]
24324 24325     1  0.09572  0.15139
[ bonds ]
24324 24326     1  0.09572  0.15139
[ bonds ]
24327 24328     1  0.09572  0.15139
[ bonds ]
24327 24329     1  0.09572  0.15139
[ bonds ]
24330 24331     1  0.09572  0.15139
[ bonds ]
24330 24332     1  0.09572  0.15139
[ bonds ]
24333 24334     1  0.09572  0.15139
[ bonds ]
24333 24335     1  0.09572  0.15139
[ bonds ]
24336 24337     1  0.09572  0.15139
[ bonds ]
24336 24338     1  0.09572  0.15139
[ bonds ]
24339 24340     1  0.09572  0.15139
[ bonds ]
24339 24341     1  0.09572  0.15139
[ bonds ]
24342 24343     1  0.09572  0.15139
[ bonds ]
24342 24344     1  0.09572  0.15139
[ bonds ]
24345 24346     1  0.09572  0.15139
[ bonds ]
24345 24347     1  0.09572  0.15139
[ bonds ]
24348 24349     1  0.09572  0.15139
[ bonds ]
24348 24350     1  0.09572  0.15139
[ bonds ]
24351 24352     1  0.09572  0.15139
[ bonds ]
24351 24353     1  0.09572  0.15139
[ bonds ]
24354 24355     1  0.09572  0.15139
[ bonds ]
24354 24356     1  0.09572  0.15139
[ bonds ]
24357 24358     1  0.09572  0.15139
[ bonds ]
24357 24359     1  0.09572  0.15139
[ bonds ]
24360 24361     1  0.09572  0.15139
[ bonds ]
24360 24362     1  0.09572  0.15139
[ bonds ]
24363 24364     1  0.09572  0.15139
[ bonds ]
24363 24365     1  0.09572  0.15139
[ bonds ]
24366 24367     1  0.09572  0.15139
[ bonds ]
24366 24368     1  0.09572  0.15139
[ bonds ]
24369 24370     1  0.09572  0.15139
[ bonds ]
24369 24371     1  0.09572  0.15139
[ bonds ]
24372 24373     1  0.09572  0.15139
[ bonds ]
24372 24374     1  0.09572  0.15139
[ bonds ]
24375 24376     1  0.09572  0.15139
[ bonds ]
24375 24377     1  0.09572  0.15139
[ bonds ]
24378 24379     1  0.09572  0.15139
[ bonds ]
24378 24380     1  0.09572  0.15139
[ bonds ]
24381 24382     1  0.09572  0.15139
[ bonds ]
24381 24383     1  0.09572  0.15139
[ bonds ]
24384 24385     1  0.09572  0.15139
[ bonds ]
24384 24386     1  0.09572  0.15139
[ bonds ]
24387 24388     1  0.09572  0.15139
[ bonds ]
24387 24389     1  0.09572  0.15139
[ bonds ]
24390 24391     1  0.09572  0.15139
[ bonds ]
24390 24392     1  0.09572  0.15139
[ bonds ]
24393 24394     1  0.09572  0.15139
[ bonds ]
24393 24395     1  0.09572  0.15139
[ bonds ]
24396 24397     1  0.09572  0.15139
[ bonds ]
24396 24398     1  0.09572  0.15139
[ bonds ]
24399 24400     1  0.09572  0.15139
[ bonds ]
24399 24401     1  0.09572  0.15139
[ bonds ]
24402 24403     1  0.09572  0.15139
[ bonds ]
24402 24404     1  0.09572  0.15139
[ bonds ]
24405 24406     1  0.09572  0.15139
[ bonds ]
24405 24407     1  0.09572  0.15139
[ bonds ]
24408 24409     1  0.09572  0.15139
[ bonds ]
24408 24410     1  0.09572  0.15139
[ bonds ]
24411 24412     1  0.09572  0.15139
[ bonds ]
24411 24413     1  0.09572  0.15139
[ bonds ]
24414 24415     1  0.09572  0.15139
[ bonds ]
24414 24416     1  0.09572  0.15139
[ bonds ]
24417 24418     1  0.09572  0.15139
[ bonds ]
24417 24419     1  0.09572  0.15139
[ bonds ]
24420 24421     1  0.09572  0.15139
[ bonds ]
24420 24422     1  0.09572  0.15139
[ bonds ]
24423 24424     1  0.09572  0.15139
[ bonds ]
24423 24425     1  0.09572  0.15139
[ bonds ]
24426 24427     1  0.09572  0.15139
[ bonds ]
24426 24428     1  0.09572  0.15139
[ bonds ]
24429 24430     1  0.09572  0.15139
[ bonds ]
24429 24431     1  0.09572  0.15139
[ bonds ]
24432 24433     1  0.09572  0.15139
[ bonds ]
24432 24434     1  0.09572  0.15139
[ bonds ]
24435 24436     1  0.09572  0.15139
[ bonds ]
24435 24437     1  0.09572  0.15139
[ bonds ]
24438 24439     1  0.09572  0.15139
[ bonds ]
24438 24440     1  0.09572  0.15139
[ bonds ]
24441 24442     1  0.09572  0.15139
[ bonds ]
24441 24443     1  0.09572  0.15139
[ bonds ]
24444 24445     1  0.09572  0.15139
[ bonds ]
24444 24446     1  0.09572  0.15139
[ bonds ]
24447 24448     1  0.09572  0.15139
[ bonds ]
24447 24449     1  0.09572  0.15139
[ bonds ]
24450 24451     1  0.09572  0.15139
[ bonds ]
24450 24452     1  0.09572  0.15139
[ bonds ]
24453 24454     1  0.09572  0.15139
[ bonds ]
24453 24455     1  0.09572  0.15139
[ bonds ]
24456 24457     1  0.09572  0.15139
[ bonds ]
24456 24458     1  0.09572  0.15139
[ bonds ]
24459 24460     1  0.09572  0.15139
[ bonds ]
24459 24461     1  0.09572  0.15139
[ bonds ]
24462 24463     1  0.09572  0.15139
[ bonds ]
24462 24464     1  0.09572  0.15139
[ bonds ]
24465 24466     1  0.09572  0.15139
[ bonds ]
24465 24467     1  0.09572  0.15139
[ bonds ]
24468 24469     1  0.09572  0.15139
[ bonds ]
24468 24470     1  0.09572  0.15139
[ bonds ]
24471 24472     1  0.09572  0.15139
[ bonds ]
24471 24473     1  0.09572  0.15139
[ bonds ]
24474 24475     1  0.09572  0.15139
[ bonds ]
24474 24476     1  0.09572  0.15139
[ bonds ]
24477 24478     1  0.09572  0.15139
[ bonds ]
24477 24479     1  0.09572  0.15139
[ bonds ]
24480 24481     1  0.09572  0.15139
[ bonds ]
24480 24482     1  0.09572  0.15139
[ bonds ]
24483 24484     1  0.09572  0.15139
[ bonds ]
24483 24485     1  0.09572  0.15139
[ bonds ]
24486 24487     1  0.09572  0.15139
[ bonds ]
24486 24488     1  0.09572  0.15139
[ bonds ]
24489 24490     1  0.09572  0.15139
[ bonds ]
24489 24491     1  0.09572  0.15139
[ bonds ]
24492 24493     1  0.09572  0.15139
[ bonds ]
24492 24494     1  0.09572  0.15139
[ bonds ]
24495 24496     1  0.09572  0.15139
[ bonds ]
24495 24497     1  0.09572  0.15139
[ bonds ]
24498 24499     1  0.09572  0.15139
[ bonds ]
24498 24500     1  0.09572  0.15139
[ bonds ]
24501 24502     1  0.09572  0.15139
[ bonds ]
24501 24503     1  0.09572  0.15139
[ bonds ]
24504 24505     1  0.09572  0.15139
[ bonds ]
24504 24506     1  0.09572  0.15139
[ bonds ]
24507 24508     1  0.09572  0.15139
[ bonds ]
24507 24509     1  0.09572  0.15139
[ bonds ]
24510 24511     1  0.09572  0.15139
[ bonds ]
24510 24512     1  0.09572  0.15139
[ bonds ]
24513 24514     1  0.09572  0.15139
[ bonds ]
24513 24515     1  0.09572  0.15139
[ bonds ]
24516 24517     1  0.09572  0.15139
[ bonds ]
24516 24518     1  0.09572  0.15139
[ bonds ]
24519 24520     1  0.09572  0.15139
[ bonds ]
24519 24521     1  0.09572  0.15139
[ bonds ]
24522 24523     1  0.09572  0.15139
[ bonds ]
24522 24524     1  0.09572  0.15139
[ bonds ]
24525 24526     1  0.09572  0.15139
[ bonds ]
24525 24527     1  0.09572  0.15139
[ bonds ]
24528 24529     1  0.09572  0.15139
[ bonds ]
24528 24530     1  0.09572  0.15139
[ bonds ]
24531 24532     1  0.09572  0.15139
[ bonds ]
24531 24533     1  0.09572  0.15139
[ bonds ]
24534 24535     1  0.09572  0.15139
[ bonds ]
24534 24536     1  0.09572  0.15139
[ bonds ]
24537 24538     1  0.09572  0.15139
[ bonds ]
24537 24539     1  0.09572  0.15139
[ bonds ]
24540 24541     1  0.09572  0.15139
[ bonds ]
24540 24542     1  0.09572  0.15139
[ bonds ]
24543 24544     1  0.09572  0.15139
[ bonds ]
24543 24545     1  0.09572  0.15139
[ bonds ]
24546 24547     1  0.09572  0.15139
[ bonds ]
24546 24548     1  0.09572  0.15139
[ bonds ]
24549 24550     1  0.09572  0.15139
[ bonds ]
24549 24551     1  0.09572  0.15139
[ bonds ]
24552 24553     1  0.09572  0.15139
[ bonds ]
24552 24554     1  0.09572  0.15139
[ bonds ]
24555 24556     1  0.09572  0.15139
[ bonds ]
24555 24557     1  0.09572  0.15139
[ bonds ]
24558 24559     1  0.09572  0.15139
[ bonds ]
24558 24560     1  0.09572  0.15139
[ bonds ]
24561 24562     1  0.09572  0.15139
[ bonds ]
24561 24563     1  0.09572  0.15139
[ bonds ]
24564 24565     1  0.09572  0.15139
[ bonds ]
24564 24566     1  0.09572  0.15139
[ bonds ]
24567 24568     1  0.09572  0.15139
[ bonds ]
24567 24569     1  0.09572  0.15139
[ bonds ]
24570 24571     1  0.09572  0.15139
[ bonds ]
24570 24572     1  0.09572  0.15139
[ bonds ]
24573 24574     1  0.09572  0.15139
[ bonds ]
24573 24575     1  0.09572  0.15139
[ bonds ]
24576 24577     1  0.09572  0.15139
[ bonds ]
24576 24578     1  0.09572  0.15139
[ bonds ]
24579 24580     1  0.09572  0.15139
[ bonds ]
24579 24581     1  0.09572  0.15139
[ bonds ]
24582 24583     1  0.09572  0.15139
[ bonds ]
24582 24584     1  0.09572  0.15139
[ bonds ]
24585 24586     1  0.09572  0.15139
[ bonds ]
24585 24587     1  0.09572  0.15139
[ bonds ]
24588 24589     1  0.09572  0.15139
[ bonds ]
24588 24590     1  0.09572  0.15139
[ bonds ]
24591 24592     1  0.09572  0.15139
[ bonds ]
24591 24593     1  0.09572  0.15139
[ bonds ]
24594 24595     1  0.09572  0.15139
[ bonds ]
24594 24596     1  0.09572  0.15139
[ bonds ]
24597 24598     1  0.09572  0.15139
[ bonds ]
24597 24599     1  0.09572  0.15139
[ bonds ]
24600 24601     1  0.09572  0.15139
[ bonds ]
24600 24602     1  0.09572  0.15139
[ bonds ]
24603 24604     1  0.09572  0.15139
[ bonds ]
24603 24605     1  0.09572  0.15139
[ bonds ]
24606 24607     1  0.09572  0.15139
[ bonds ]
24606 24608     1  0.09572  0.15139
[ bonds ]
24609 24610     1  0.09572  0.15139
[ bonds ]
24609 24611     1  0.09572  0.15139
[ bonds ]
24612 24613     1  0.09572  0.15139
[ bonds ]
24612 24614     1  0.09572  0.15139
[ bonds ]
24615 24616     1  0.09572  0.15139
[ bonds ]
24615 24617     1  0.09572  0.15139
[ bonds ]
24618 24619     1  0.09572  0.15139
[ bonds ]
24618 24620     1  0.09572  0.15139
[ bonds ]
24621 24622     1  0.09572  0.15139
[ bonds ]
24621 24623     1  0.09572  0.15139
[ bonds ]
24624 24625     1  0.09572  0.15139
[ bonds ]
24624 24626     1  0.09572  0.15139
[ bonds ]
24627 24628     1  0.09572  0.15139
[ bonds ]
24627 24629     1  0.09572  0.15139
[ bonds ]
24630 24631     1  0.09572  0.15139
[ bonds ]
24630 24632     1  0.09572  0.15139
[ bonds ]
24633 24634     1  0.09572  0.15139
[ bonds ]
24633 24635     1  0.09572  0.15139
[ bonds ]
24636 24637     1  0.09572  0.15139
[ bonds ]
24636 24638     1  0.09572  0.15139
[ bonds ]
24639 24640     1  0.09572  0.15139
[ bonds ]
24639 24641     1  0.09572  0.15139
[ bonds ]
24642 24643     1  0.09572  0.15139
[ bonds ]
24642 24644     1  0.09572  0.15139
[ bonds ]
24645 24646     1  0.09572  0.15139
[ bonds ]
24645 24647     1  0.09572  0.15139
[ bonds ]
24648 24649     1  0.09572  0.15139
[ bonds ]
24648 24650     1  0.09572  0.15139
[ bonds ]
24651 24652     1  0.09572  0.15139
[ bonds ]
24651 24653     1  0.09572  0.15139
[ bonds ]
24654 24655     1  0.09572  0.15139
[ bonds ]
24654 24656     1  0.09572  0.15139
[ bonds ]
24657 24658     1  0.09572  0.15139
[ bonds ]
24657 24659     1  0.09572  0.15139
[ bonds ]
24660 24661     1  0.09572  0.15139
[ bonds ]
24660 24662     1  0.09572  0.15139
[ bonds ]
24663 24664     1  0.09572  0.15139
[ bonds ]
24663 24665     1  0.09572  0.15139
[ bonds ]
24666 24667     1  0.09572  0.15139
[ bonds ]
24666 24668     1  0.09572  0.15139
[ bonds ]
24669 24670     1  0.09572  0.15139
[ bonds ]
24669 24671     1  0.09572  0.15139
[ bonds ]
24672 24673     1  0.09572  0.15139
[ bonds ]
24672 24674     1  0.09572  0.15139
[ bonds ]
24675 24676     1  0.09572  0.15139
[ bonds ]
24675 24677     1  0.09572  0.15139
[ bonds ]
24678 24679     1  0.09572  0.15139
[ bonds ]
24678 24680     1  0.09572  0.15139
[ bonds ]
24681 24682     1  0.09572  0.15139
[ bonds ]
24681 24683     1  0.09572  0.15139
[ bonds ]
24684 24685     1  0.09572  0.15139
[ bonds ]
24684 24686     1  0.09572  0.15139
[ bonds ]
24687 24688     1  0.09572  0.15139
[ bonds ]
24687 24689     1  0.09572  0.15139
[ bonds ]
24690 24691     1  0.09572  0.15139
[ bonds ]
24690 24692     1  0.09572  0.15139
[ bonds ]
24693 24694     1  0.09572  0.15139
[ bonds ]
24693 24695     1  0.09572  0.15139
[ bonds ]
24696 24697     1  0.09572  0.15139
[ bonds ]
24696 24698     1  0.09572  0.15139
[ bonds ]
24699 24700     1  0.09572  0.15139
[ bonds ]
24699 24701     1  0.09572  0.15139
[ bonds ]
24702 24703     1  0.09572  0.15139
[ bonds ]
24702 24704     1  0.09572  0.15139
[ bonds ]
24705 24706     1  0.09572  0.15139
[ bonds ]
24705 24707     1  0.09572  0.15139
[ bonds ]
24708 24709     1  0.09572  0.15139
[ bonds ]
24708 24710     1  0.09572  0.15139
[ bonds ]
24711 24712     1  0.09572  0.15139
[ bonds ]
24711 24713     1  0.09572  0.15139
[ bonds ]
24714 24715     1  0.09572  0.15139
[ bonds ]
24714 24716     1  0.09572  0.15139
[ bonds ]
24717 24718     1  0.09572  0.15139
[ bonds ]
24717 24719     1  0.09572  0.15139
[ bonds ]
24720 24721     1  0.09572  0.15139
[ bonds ]
24720 24722     1  0.09572  0.15139
[ bonds ]
24723 24724     1  0.09572  0.15139
[ bonds ]
24723 24725     1  0.09572  0.15139
[ bonds ]
24726 24727     1  0.09572  0.15139
[ bonds ]
24726 24728     1  0.09572  0.15139
[ bonds ]
24729 24730     1  0.09572  0.15139
[ bonds ]
24729 24731     1  0.09572  0.15139
[ bonds ]
24732 24733     1  0.09572  0.15139
[ bonds ]
24732 24734     1  0.09572  0.15139
[ bonds ]
24735 24736     1  0.09572  0.15139
[ bonds ]
24735 24737     1  0.09572  0.15139
[ bonds ]
24738 24739     1  0.09572  0.15139
[ bonds ]
24738 24740     1  0.09572  0.15139
[ bonds ]
24741 24742     1  0.09572  0.15139
[ bonds ]
24741 24743     1  0.09572  0.15139
[ bonds ]
24744 24745     1  0.09572  0.15139
[ bonds ]
24744 24746     1  0.09572  0.15139
[ bonds ]
24747 24748     1  0.09572  0.15139
[ bonds ]
24747 24749     1  0.09572  0.15139
[ bonds ]
24750 24751     1  0.09572  0.15139
[ bonds ]
24750 24752     1  0.09572  0.15139
[ bonds ]
24753 24754     1  0.09572  0.15139
[ bonds ]
24753 24755     1  0.09572  0.15139
[ bonds ]
24756 24757     1  0.09572  0.15139
[ bonds ]
24756 24758     1  0.09572  0.15139
[ bonds ]
24759 24760     1  0.09572  0.15139
[ bonds ]
24759 24761     1  0.09572  0.15139
[ bonds ]
24762 24763     1  0.09572  0.15139
[ bonds ]
24762 24764     1  0.09572  0.15139
[ bonds ]
24765 24766     1  0.09572  0.15139
[ bonds ]
24765 24767     1  0.09572  0.15139
[ bonds ]
24768 24769     1  0.09572  0.15139
[ bonds ]
24768 24770     1  0.09572  0.15139
[ bonds ]
24771 24772     1  0.09572  0.15139
[ bonds ]
24771 24773     1  0.09572  0.15139
[ bonds ]
24774 24775     1  0.09572  0.15139
[ bonds ]
24774 24776     1  0.09572  0.15139
[ bonds ]
24777 24778     1  0.09572  0.15139
[ bonds ]
24777 24779     1  0.09572  0.15139
[ bonds ]
24780 24781     1  0.09572  0.15139
[ bonds ]
24780 24782     1  0.09572  0.15139
[ bonds ]
24783 24784     1  0.09572  0.15139
[ bonds ]
24783 24785     1  0.09572  0.15139
[ bonds ]
24786 24787     1  0.09572  0.15139
[ bonds ]
24786 24788     1  0.09572  0.15139
[ bonds ]
24789 24790     1  0.09572  0.15139
[ bonds ]
24789 24791     1  0.09572  0.15139
[ bonds ]
24792 24793     1  0.09572  0.15139
[ bonds ]
24792 24794     1  0.09572  0.15139
[ bonds ]
24795 24796     1  0.09572  0.15139
[ bonds ]
24795 24797     1  0.09572  0.15139
[ bonds ]
24798 24799     1  0.09572  0.15139
[ bonds ]
24798 24800     1  0.09572  0.15139
[ bonds ]
24801 24802     1  0.09572  0.15139
[ bonds ]
24801 24803     1  0.09572  0.15139
[ bonds ]
24804 24805     1  0.09572  0.15139
[ bonds ]
24804 24806     1  0.09572  0.15139
[ bonds ]
24807 24808     1  0.09572  0.15139
[ bonds ]
24807 24809     1  0.09572  0.15139
[ bonds ]
24810 24811     1  0.09572  0.15139
[ bonds ]
24810 24812     1  0.09572  0.15139
[ bonds ]
24813 24814     1  0.09572  0.15139
[ bonds ]
24813 24815     1  0.09572  0.15139
[ bonds ]
24816 24817     1  0.09572  0.15139
[ bonds ]
24816 24818     1  0.09572  0.15139
[ bonds ]
24819 24820     1  0.09572  0.15139
[ bonds ]
24819 24821     1  0.09572  0.15139
[ bonds ]
24822 24823     1  0.09572  0.15139
[ bonds ]
24822 24824     1  0.09572  0.15139
[ bonds ]
24825 24826     1  0.09572  0.15139
[ bonds ]
24825 24827     1  0.09572  0.15139
[ bonds ]
24828 24829     1  0.09572  0.15139
[ bonds ]
24828 24830     1  0.09572  0.15139
[ bonds ]
24831 24832     1  0.09572  0.15139
[ bonds ]
24831 24833     1  0.09572  0.15139
[ bonds ]
24834 24835     1  0.09572  0.15139
[ bonds ]
24834 24836     1  0.09572  0.15139
[ bonds ]
24837 24838     1  0.09572  0.15139
[ bonds ]
24837 24839     1  0.09572  0.15139
[ bonds ]
24840 24841     1  0.09572  0.15139
[ bonds ]
24840 24842     1  0.09572  0.15139
[ bonds ]
24843 24844     1  0.09572  0.15139
[ bonds ]
24843 24845     1  0.09572  0.15139
[ bonds ]
24846 24847     1  0.09572  0.15139
[ bonds ]
24846 24848     1  0.09572  0.15139
[ bonds ]
24849 24850     1  0.09572  0.15139
[ bonds ]
24849 24851     1  0.09572  0.15139
[ bonds ]
24852 24853     1  0.09572  0.15139
[ bonds ]
24852 24854     1  0.09572  0.15139
[ bonds ]
24855 24856     1  0.09572  0.15139
[ bonds ]
24855 24857     1  0.09572  0.15139
[ bonds ]
24858 24859     1  0.09572  0.15139
[ bonds ]
24858 24860     1  0.09572  0.15139
[ bonds ]
24861 24862     1  0.09572  0.15139
[ bonds ]
24861 24863     1  0.09572  0.15139
[ bonds ]
24864 24865     1  0.09572  0.15139
[ bonds ]
24864 24866     1  0.09572  0.15139
[ bonds ]
24867 24868     1  0.09572  0.15139
[ bonds ]
24867 24869     1  0.09572  0.15139
[ bonds ]
24870 24871     1  0.09572  0.15139
[ bonds ]
24870 24872     1  0.09572  0.15139
[ bonds ]
24873 24874     1  0.09572  0.15139
[ bonds ]
24873 24875     1  0.09572  0.15139
[ bonds ]
24876 24877     1  0.09572  0.15139
[ bonds ]
24876 24878     1  0.09572  0.15139
[ bonds ]
24879 24880     1  0.09572  0.15139
[ bonds ]
24879 24881     1  0.09572  0.15139
[ bonds ]
24882 24883     1  0.09572  0.15139
[ bonds ]
24882 24884     1  0.09572  0.15139
[ bonds ]
24885 24886     1  0.09572  0.15139
[ bonds ]
24885 24887     1  0.09572  0.15139
[ bonds ]
24888 24889     1  0.09572  0.15139
[ bonds ]
24888 24890     1  0.09572  0.15139
[ bonds ]
24891 24892     1  0.09572  0.15139
[ bonds ]
24891 24893     1  0.09572  0.15139
[ bonds ]
24894 24895     1  0.09572  0.15139
[ bonds ]
24894 24896     1  0.09572  0.15139
[ bonds ]
24897 24898     1  0.09572  0.15139
[ bonds ]
24897 24899     1  0.09572  0.15139
[ bonds ]
24900 24901     1  0.09572  0.15139
[ bonds ]
24900 24902     1  0.09572  0.15139
[ bonds ]
24903 24904     1  0.09572  0.15139
[ bonds ]
24903 24905     1  0.09572  0.15139
[ bonds ]
24906 24907     1  0.09572  0.15139
[ bonds ]
24906 24908     1  0.09572  0.15139
[ bonds ]
24909 24910     1  0.09572  0.15139
[ bonds ]
24909 24911     1  0.09572  0.15139
[ bonds ]
24912 24913     1  0.09572  0.15139
[ bonds ]
24912 24914     1  0.09572  0.15139
[ bonds ]
24915 24916     1  0.09572  0.15139
[ bonds ]
24915 24917     1  0.09572  0.15139
[ bonds ]
24918 24919     1  0.09572  0.15139
[ bonds ]
24918 24920     1  0.09572  0.15139
[ bonds ]
24921 24922     1  0.09572  0.15139
[ bonds ]
24921 24923     1  0.09572  0.15139
[ bonds ]
24924 24925     1  0.09572  0.15139
[ bonds ]
24924 24926     1  0.09572  0.15139
[ bonds ]
24927 24928     1  0.09572  0.15139
[ bonds ]
24927 24929     1  0.09572  0.15139
[ bonds ]
24930 24931     1  0.09572  0.15139
[ bonds ]
24930 24932     1  0.09572  0.15139
[ bonds ]
24933 24934     1  0.09572  0.15139
[ bonds ]
24933 24935     1  0.09572  0.15139
[ bonds ]
24936 24937     1  0.09572  0.15139
[ bonds ]
24936 24938     1  0.09572  0.15139
[ bonds ]
24939 24940     1  0.09572  0.15139
[ bonds ]
24939 24941     1  0.09572  0.15139
[ bonds ]
24942 24943     1  0.09572  0.15139
[ bonds ]
24942 24944     1  0.09572  0.15139
[ bonds ]
24945 24946     1  0.09572  0.15139
[ bonds ]
24945 24947     1  0.09572  0.15139
[ bonds ]
24948 24949     1  0.09572  0.15139
[ bonds ]
24948 24950     1  0.09572  0.15139
[ bonds ]
24951 24952     1  0.09572  0.15139
[ bonds ]
24951 24953     1  0.09572  0.15139
[ bonds ]
24954 24955     1  0.09572  0.15139
[ bonds ]
24954 24956     1  0.09572  0.15139
[ bonds ]
24957 24958     1  0.09572  0.15139
[ bonds ]
24957 24959     1  0.09572  0.15139
[ bonds ]
24960 24961     1  0.09572  0.15139
[ bonds ]
24960 24962     1  0.09572  0.15139
[ bonds ]
24963 24964     1  0.09572  0.15139
[ bonds ]
24963 24965     1  0.09572  0.15139
[ bonds ]
24966 24967     1  0.09572  0.15139
[ bonds ]
24966 24968     1  0.09572  0.15139
[ bonds ]
24969 24970     1  0.09572  0.15139
[ bonds ]
24969 24971     1  0.09572  0.15139
[ bonds ]
24972 24973     1  0.09572  0.15139
[ bonds ]
24972 24974     1  0.09572  0.15139
[ bonds ]
24975 24976     1  0.09572  0.15139
[ bonds ]
24975 24977     1  0.09572  0.15139
[ bonds ]
24978 24979     1  0.09572  0.15139
[ bonds ]
24978 24980     1  0.09572  0.15139
[ bonds ]
24981 24982     1  0.09572  0.15139
[ bonds ]
24981 24983     1  0.09572  0.15139
[ bonds ]
24984 24985     1  0.09572  0.15139
[ bonds ]
24984 24986     1  0.09572  0.15139
[ bonds ]
24987 24988     1  0.09572  0.15139
[ bonds ]
24987 24989     1  0.09572  0.15139
[ bonds ]
24990 24991     1  0.09572  0.15139
[ bonds ]
24990 24992     1  0.09572  0.15139
[ bonds ]
24993 24994     1  0.09572  0.15139
[ bonds ]
24993 24995     1  0.09572  0.15139
[ bonds ]
24996 24997     1  0.09572  0.15139
[ bonds ]
24996 24998     1  0.09572  0.15139
[ bonds ]
24999 25000     1  0.09572  0.15139
[ bonds ]
24999 25001     1  0.09572  0.15139
[ bonds ]
25002 25003     1  0.09572  0.15139
[ bonds ]
25002 25004     1  0.09572  0.15139
[ bonds ]
25005 25006     1  0.09572  0.15139
[ bonds ]
25005 25007     1  0.09572  0.15139
[ bonds ]
25008 25009     1  0.09572  0.15139
[ bonds ]
25008 25010     1  0.09572  0.15139
[ bonds ]
25011 25012     1  0.09572  0.15139
[ bonds ]
25011 25013     1  0.09572  0.15139
[ bonds ]
25014 25015     1  0.09572  0.15139
[ bonds ]
25014 25016     1  0.09572  0.15139
[ bonds ]
25017 25018     1  0.09572  0.15139
[ bonds ]
25017 25019     1  0.09572  0.15139
[ bonds ]
25020 25021     1  0.09572  0.15139
[ bonds ]
25020 25022     1  0.09572  0.15139
[ bonds ]
25023 25024     1  0.09572  0.15139
[ bonds ]
25023 25025     1  0.09572  0.15139
[ bonds ]
25026 25027     1  0.09572  0.15139
[ bonds ]
25026 25028     1  0.09572  0.15139
[ bonds ]
25029 25030     1  0.09572  0.15139
[ bonds ]
25029 25031     1  0.09572  0.15139
[ bonds ]
25032 25033     1  0.09572  0.15139
[ bonds ]
25032 25034     1  0.09572  0.15139
[ bonds ]
25035 25036     1  0.09572  0.15139
[ bonds ]
25035 25037     1  0.09572  0.15139
[ bonds ]
25038 25039     1  0.09572  0.15139
[ bonds ]
25038 25040     1  0.09572  0.15139
[ bonds ]
25041 25042     1  0.09572  0.15139
[ bonds ]
25041 25043     1  0.09572  0.15139
[ bonds ]
25044 25045     1  0.09572  0.15139
[ bonds ]
25044 25046     1  0.09572  0.15139
[ bonds ]
25047 25048     1  0.09572  0.15139
[ bonds ]
25047 25049     1  0.09572  0.15139
[ bonds ]
25050 25051     1  0.09572  0.15139
[ bonds ]
25050 25052     1  0.09572  0.15139
[ bonds ]
25053 25054     1  0.09572  0.15139
[ bonds ]
25053 25055     1  0.09572  0.15139
[ bonds ]
25056 25057     1  0.09572  0.15139
[ bonds ]
25056 25058     1  0.09572  0.15139
[ bonds ]
25059 25060     1  0.09572  0.15139
[ bonds ]
25059 25061     1  0.09572  0.15139
[ bonds ]
25062 25063     1  0.09572  0.15139
[ bonds ]
25062 25064     1  0.09572  0.15139
[ bonds ]
25065 25066     1  0.09572  0.15139
[ bonds ]
25065 25067     1  0.09572  0.15139
[ bonds ]
25068 25069     1  0.09572  0.15139
[ bonds ]
25068 25070     1  0.09572  0.15139
[ bonds ]
25071 25072     1  0.09572  0.15139
[ bonds ]
25071 25073     1  0.09572  0.15139
[ bonds ]
25074 25075     1  0.09572  0.15139
[ bonds ]
25074 25076     1  0.09572  0.15139
[ bonds ]
25077 25078     1  0.09572  0.15139
[ bonds ]
25077 25079     1  0.09572  0.15139
[ bonds ]
25080 25081     1  0.09572  0.15139
[ bonds ]
25080 25082     1  0.09572  0.15139
[ bonds ]
25083 25084     1  0.09572  0.15139
[ bonds ]
25083 25085     1  0.09572  0.15139
[ bonds ]
25086 25087     1  0.09572  0.15139
[ bonds ]
25086 25088     1  0.09572  0.15139
[ bonds ]
25089 25090     1  0.09572  0.15139
[ bonds ]
25089 25091     1  0.09572  0.15139
[ bonds ]
25092 25093     1  0.09572  0.15139
[ bonds ]
25092 25094     1  0.09572  0.15139
[ bonds ]
25095 25096     1  0.09572  0.15139
[ bonds ]
25095 25097     1  0.09572  0.15139
[ bonds ]
25098 25099     1  0.09572  0.15139
[ bonds ]
25098 25100     1  0.09572  0.15139
[ bonds ]
25101 25102     1  0.09572  0.15139
[ bonds ]
25101 25103     1  0.09572  0.15139
[ bonds ]
25104 25105     1  0.09572  0.15139
[ bonds ]
25104 25106     1  0.09572  0.15139
[ bonds ]
25107 25108     1  0.09572  0.15139
[ bonds ]
25107 25109     1  0.09572  0.15139
[ bonds ]
25110 25111     1  0.09572  0.15139
[ bonds ]
25110 25112     1  0.09572  0.15139
[ bonds ]
25113 25114     1  0.09572  0.15139
[ bonds ]
25113 25115     1  0.09572  0.15139
[ bonds ]
25116 25117     1  0.09572  0.15139
[ bonds ]
25116 25118     1  0.09572  0.15139
[ bonds ]
25119 25120     1  0.09572  0.15139
[ bonds ]
25119 25121     1  0.09572  0.15139
[ bonds ]
25122 25123     1  0.09572  0.15139
[ bonds ]
25122 25124     1  0.09572  0.15139
[ bonds ]
25125 25126     1  0.09572  0.15139
[ bonds ]
25125 25127     1  0.09572  0.15139
[ bonds ]
25128 25129     1  0.09572  0.15139
[ bonds ]
25128 25130     1  0.09572  0.15139
[ bonds ]
25131 25132     1  0.09572  0.15139
[ bonds ]
25131 25133     1  0.09572  0.15139
[ bonds ]
25134 25135     1  0.09572  0.15139
[ bonds ]
25134 25136     1  0.09572  0.15139
[ bonds ]
25137 25138     1  0.09572  0.15139
[ bonds ]
25137 25139     1  0.09572  0.15139
[ bonds ]
25140 25141     1  0.09572  0.15139
[ bonds ]
25140 25142     1  0.09572  0.15139
[ bonds ]
25143 25144     1  0.09572  0.15139
[ bonds ]
25143 25145     1  0.09572  0.15139
[ bonds ]
25146 25147     1  0.09572  0.15139
[ bonds ]
25146 25148     1  0.09572  0.15139
[ bonds ]
25149 25150     1  0.09572  0.15139
[ bonds ]
25149 25151     1  0.09572  0.15139
[ bonds ]
25152 25153     1  0.09572  0.15139
[ bonds ]
25152 25154     1  0.09572  0.15139
[ bonds ]
25155 25156     1  0.09572  0.15139
[ bonds ]
25155 25157     1  0.09572  0.15139
[ bonds ]
25158 25159     1  0.09572  0.15139
[ bonds ]
25158 25160     1  0.09572  0.15139
[ bonds ]
25161 25162     1  0.09572  0.15139
[ bonds ]
25161 25163     1  0.09572  0.15139
[ bonds ]
25164 25165     1  0.09572  0.15139
[ bonds ]
25164 25166     1  0.09572  0.15139
[ bonds ]
25167 25168     1  0.09572  0.15139
[ bonds ]
25167 25169     1  0.09572  0.15139
[ bonds ]
25170 25171     1  0.09572  0.15139
[ bonds ]
25170 25172     1  0.09572  0.15139
[ bonds ]
25173 25174     1  0.09572  0.15139
[ bonds ]
25173 25175     1  0.09572  0.15139
[ bonds ]
25176 25177     1  0.09572  0.15139
[ bonds ]
25176 25178     1  0.09572  0.15139
[ bonds ]
25179 25180     1  0.09572  0.15139
[ bonds ]
25179 25181     1  0.09572  0.15139
[ bonds ]
25182 25183     1  0.09572  0.15139
[ bonds ]
25182 25184     1  0.09572  0.15139
[ bonds ]
25185 25186     1  0.09572  0.15139
[ bonds ]
25185 25187     1  0.09572  0.15139
[ bonds ]
25188 25189     1  0.09572  0.15139
[ bonds ]
25188 25190     1  0.09572  0.15139
[ bonds ]
25191 25192     1  0.09572  0.15139
[ bonds ]
25191 25193     1  0.09572  0.15139
[ bonds ]
25194 25195     1  0.09572  0.15139
[ bonds ]
25194 25196     1  0.09572  0.15139
[ bonds ]
25197 25198     1  0.09572  0.15139
[ bonds ]
25197 25199     1  0.09572  0.15139
[ bonds ]
25200 25201     1  0.09572  0.15139
[ bonds ]
25200 25202     1  0.09572  0.15139
[ bonds ]
25203 25204     1  0.09572  0.15139
[ bonds ]
25203 25205     1  0.09572  0.15139
[ bonds ]
25206 25207     1  0.09572  0.15139
[ bonds ]
25206 25208     1  0.09572  0.15139
[ bonds ]
25209 25210     1  0.09572  0.15139
[ bonds ]
25209 25211     1  0.09572  0.15139
[ bonds ]
25212 25213     1  0.09572  0.15139
[ bonds ]
25212 25214     1  0.09572  0.15139
[ bonds ]
25215 25216     1  0.09572  0.15139
[ bonds ]
25215 25217     1  0.09572  0.15139
[ bonds ]
25218 25219     1  0.09572  0.15139
[ bonds ]
25218 25220     1  0.09572  0.15139
[ bonds ]
25221 25222     1  0.09572  0.15139
[ bonds ]
25221 25223     1  0.09572  0.15139
[ bonds ]
25224 25225     1  0.09572  0.15139
[ bonds ]
25224 25226     1  0.09572  0.15139
[ bonds ]
25227 25228     1  0.09572  0.15139
[ bonds ]
25227 25229     1  0.09572  0.15139
[ bonds ]
25230 25231     1  0.09572  0.15139
[ bonds ]
25230 25232     1  0.09572  0.15139
[ bonds ]
25233 25234     1  0.09572  0.15139
[ bonds ]
25233 25235     1  0.09572  0.15139
[ bonds ]
25236 25237     1  0.09572  0.15139
[ bonds ]
25236 25238     1  0.09572  0.15139
[ bonds ]
25239 25240     1  0.09572  0.15139
[ bonds ]
25239 25241     1  0.09572  0.15139
[ bonds ]
25242 25243     1  0.09572  0.15139
[ bonds ]
25242 25244     1  0.09572  0.15139
[ bonds ]
25245 25246     1  0.09572  0.15139
[ bonds ]
25245 25247     1  0.09572  0.15139
[ bonds ]
25248 25249     1  0.09572  0.15139
[ bonds ]
25248 25250     1  0.09572  0.15139
[ bonds ]
25251 25252     1  0.09572  0.15139
[ bonds ]
25251 25253     1  0.09572  0.15139
[ bonds ]
25254 25255     1  0.09572  0.15139
[ bonds ]
25254 25256     1  0.09572  0.15139
[ bonds ]
25257 25258     1  0.09572  0.15139
[ bonds ]
25257 25259     1  0.09572  0.15139
[ bonds ]
25260 25261     1  0.09572  0.15139
[ bonds ]
25260 25262     1  0.09572  0.15139
[ bonds ]
25263 25264     1  0.09572  0.15139
[ bonds ]
25263 25265     1  0.09572  0.15139
[ bonds ]
25266 25267     1  0.09572  0.15139
[ bonds ]
25266 25268     1  0.09572  0.15139
[ bonds ]
25269 25270     1  0.09572  0.15139
[ bonds ]
25269 25271     1  0.09572  0.15139
[ bonds ]
25272 25273     1  0.09572  0.15139
[ bonds ]
25272 25274     1  0.09572  0.15139
[ bonds ]
25275 25276     1  0.09572  0.15139
[ bonds ]
25275 25277     1  0.09572  0.15139
[ bonds ]
25278 25279     1  0.09572  0.15139
[ bonds ]
25278 25280     1  0.09572  0.15139
[ bonds ]
25281 25282     1  0.09572  0.15139
[ bonds ]
25281 25283     1  0.09572  0.15139
[ bonds ]
25284 25285     1  0.09572  0.15139
[ bonds ]
25284 25286     1  0.09572  0.15139
[ bonds ]
25287 25288     1  0.09572  0.15139
[ bonds ]
25287 25289     1  0.09572  0.15139
[ bonds ]
25290 25291     1  0.09572  0.15139
[ bonds ]
25290 25292     1  0.09572  0.15139
[ bonds ]
25293 25294     1  0.09572  0.15139
[ bonds ]
25293 25295     1  0.09572  0.15139
[ bonds ]
25296 25297     1  0.09572  0.15139
[ bonds ]
25296 25298     1  0.09572  0.15139
[ bonds ]
25299 25300     1  0.09572  0.15139
[ bonds ]
25299 25301     1  0.09572  0.15139
[ bonds ]
25302 25303     1  0.09572  0.15139
[ bonds ]
25302 25304     1  0.09572  0.15139
[ bonds ]
25305 25306     1  0.09572  0.15139
[ bonds ]
25305 25307     1  0.09572  0.15139
[ bonds ]
25308 25309     1  0.09572  0.15139
[ bonds ]
25308 25310     1  0.09572  0.15139
[ bonds ]
25311 25312     1  0.09572  0.15139
[ bonds ]
25311 25313     1  0.09572  0.15139
[ bonds ]
25314 25315     1  0.09572  0.15139
[ bonds ]
25314 25316     1  0.09572  0.15139
[ bonds ]
25317 25318     1  0.09572  0.15139
[ bonds ]
25317 25319     1  0.09572  0.15139
[ bonds ]
25320 25321     1  0.09572  0.15139
[ bonds ]
25320 25322     1  0.09572  0.15139
[ bonds ]
25323 25324     1  0.09572  0.15139
[ bonds ]
25323 25325     1  0.09572  0.15139
[ bonds ]
25326 25327     1  0.09572  0.15139
[ bonds ]
25326 25328     1  0.09572  0.15139
[ bonds ]
25329 25330     1  0.09572  0.15139
[ bonds ]
25329 25331     1  0.09572  0.15139
[ bonds ]
25332 25333     1  0.09572  0.15139
[ bonds ]
25332 25334     1  0.09572  0.15139
[ bonds ]
25335 25336     1  0.09572  0.15139
[ bonds ]
25335 25337     1  0.09572  0.15139
[ bonds ]
25338 25339     1  0.09572  0.15139
[ bonds ]
25338 25340     1  0.09572  0.15139
[ bonds ]
25341 25342     1  0.09572  0.15139
[ bonds ]
25341 25343     1  0.09572  0.15139
[ bonds ]
25344 25345     1  0.09572  0.15139
[ bonds ]
25344 25346     1  0.09572  0.15139
[ bonds ]
25347 25348     1  0.09572  0.15139
[ bonds ]
25347 25349     1  0.09572  0.15139
[ bonds ]
25350 25351     1  0.09572  0.15139
[ bonds ]
25350 25352     1  0.09572  0.15139
[ bonds ]
25353 25354     1  0.09572  0.15139
[ bonds ]
25353 25355     1  0.09572  0.15139
[ bonds ]
25356 25357     1  0.09572  0.15139
[ bonds ]
25356 25358     1  0.09572  0.15139
[ bonds ]
25359 25360     1  0.09572  0.15139
[ bonds ]
25359 25361     1  0.09572  0.15139
[ bonds ]
25362 25363     1  0.09572  0.15139
[ bonds ]
25362 25364     1  0.09572  0.15139
[ bonds ]
25365 25366     1  0.09572  0.15139
[ bonds ]
25365 25367     1  0.09572  0.15139
[ bonds ]
25368 25369     1  0.09572  0.15139
[ bonds ]
25368 25370     1  0.09572  0.15139
[ bonds ]
25371 25372     1  0.09572  0.15139
[ bonds ]
25371 25373     1  0.09572  0.15139
[ bonds ]
25374 25375     1  0.09572  0.15139
[ bonds ]
25374 25376     1  0.09572  0.15139
[ bonds ]
25377 25378     1  0.09572  0.15139
[ bonds ]
25377 25379     1  0.09572  0.15139
[ bonds ]
25380 25381     1  0.09572  0.15139
[ bonds ]
25380 25382     1  0.09572  0.15139
[ bonds ]
25383 25384     1  0.09572  0.15139
[ bonds ]
25383 25385     1  0.09572  0.15139
[ bonds ]
25386 25387     1  0.09572  0.15139
[ bonds ]
25386 25388     1  0.09572  0.15139
[ bonds ]
25389 25390     1  0.09572  0.15139
[ bonds ]
25389 25391     1  0.09572  0.15139
[ bonds ]
25392 25393     1  0.09572  0.15139
[ bonds ]
25392 25394     1  0.09572  0.15139
[ bonds ]
25395 25396     1  0.09572  0.15139
[ bonds ]
25395 25397     1  0.09572  0.15139
[ bonds ]
25398 25399     1  0.09572  0.15139
[ bonds ]
25398 25400     1  0.09572  0.15139
[ bonds ]
25401 25402     1  0.09572  0.15139
[ bonds ]
25401 25403     1  0.09572  0.15139
[ bonds ]
25404 25405     1  0.09572  0.15139
[ bonds ]
25404 25406     1  0.09572  0.15139
[ bonds ]
25407 25408     1  0.09572  0.15139
[ bonds ]
25407 25409     1  0.09572  0.15139
[ bonds ]
25410 25411     1  0.09572  0.15139
[ bonds ]
25410 25412     1  0.09572  0.15139
[ bonds ]
25413 25414     1  0.09572  0.15139
[ bonds ]
25413 25415     1  0.09572  0.15139
[ bonds ]
25416 25417     1  0.09572  0.15139
[ bonds ]
25416 25418     1  0.09572  0.15139
[ bonds ]
25419 25420     1  0.09572  0.15139
[ bonds ]
25419 25421     1  0.09572  0.15139
[ bonds ]
25422 25423     1  0.09572  0.15139
[ bonds ]
25422 25424     1  0.09572  0.15139
[ bonds ]
25425 25426     1  0.09572  0.15139
[ bonds ]
25425 25427     1  0.09572  0.15139
[ bonds ]
25428 25429     1  0.09572  0.15139
[ bonds ]
25428 25430     1  0.09572  0.15139
[ bonds ]
25431 25432     1  0.09572  0.15139
[ bonds ]
25431 25433     1  0.09572  0.15139
[ bonds ]
25434 25435     1  0.09572  0.15139
[ bonds ]
25434 25436     1  0.09572  0.15139
[ bonds ]
25437 25438     1  0.09572  0.15139
[ bonds ]
25437 25439     1  0.09572  0.15139
[ bonds ]
25440 25441     1  0.09572  0.15139
[ bonds ]
25440 25442     1  0.09572  0.15139
[ bonds ]
25443 25444     1  0.09572  0.15139
[ bonds ]
25443 25445     1  0.09572  0.15139
[ bonds ]
25446 25447     1  0.09572  0.15139
[ bonds ]
25446 25448     1  0.09572  0.15139
[ bonds ]
25449 25450     1  0.09572  0.15139
[ bonds ]
25449 25451     1  0.09572  0.15139
[ bonds ]
25452 25453     1  0.09572  0.15139
[ bonds ]
25452 25454     1  0.09572  0.15139
[ bonds ]
25455 25456     1  0.09572  0.15139
[ bonds ]
25455 25457     1  0.09572  0.15139
[ bonds ]
25458 25459     1  0.09572  0.15139
[ bonds ]
25458 25460     1  0.09572  0.15139
[ bonds ]
25461 25462     1  0.09572  0.15139
[ bonds ]
25461 25463     1  0.09572  0.15139
[ bonds ]
25464 25465     1  0.09572  0.15139
[ bonds ]
25464 25466     1  0.09572  0.15139
[ bonds ]
25467 25468     1  0.09572  0.15139
[ bonds ]
25467 25469     1  0.09572  0.15139
[ bonds ]
25470 25471     1  0.09572  0.15139
[ bonds ]
25470 25472     1  0.09572  0.15139
[ bonds ]
25473 25474     1  0.09572  0.15139
[ bonds ]
25473 25475     1  0.09572  0.15139
[ bonds ]
25476 25477     1  0.09572  0.15139
[ bonds ]
25476 25478     1  0.09572  0.15139
[ bonds ]
25479 25480     1  0.09572  0.15139
[ bonds ]
25479 25481     1  0.09572  0.15139
[ bonds ]
25482 25483     1  0.09572  0.15139
[ bonds ]
25482 25484     1  0.09572  0.15139
[ bonds ]
25485 25486     1  0.09572  0.15139
[ bonds ]
25485 25487     1  0.09572  0.15139
[ bonds ]
25488 25489     1  0.09572  0.15139
[ bonds ]
25488 25490     1  0.09572  0.15139
[ bonds ]
25491 25492     1  0.09572  0.15139
[ bonds ]
25491 25493     1  0.09572  0.15139
[ bonds ]
25494 25495     1  0.09572  0.15139
[ bonds ]
25494 25496     1  0.09572  0.15139
[ bonds ]
25497 25498     1  0.09572  0.15139
[ bonds ]
25497 25499     1  0.09572  0.15139
[ bonds ]
25500 25501     1  0.09572  0.15139
[ bonds ]
25500 25502     1  0.09572  0.15139
[ bonds ]
25503 25504     1  0.09572  0.15139
[ bonds ]
25503 25505     1  0.09572  0.15139
[ bonds ]
25506 25507     1  0.09572  0.15139
[ bonds ]
25506 25508     1  0.09572  0.15139
[ bonds ]
25509 25510     1  0.09572  0.15139
[ bonds ]
25509 25511     1  0.09572  0.15139
[ bonds ]
25512 25513     1  0.09572  0.15139
[ bonds ]
25512 25514     1  0.09572  0.15139
[ bonds ]
25515 25516     1  0.09572  0.15139
[ bonds ]
25515 25517     1  0.09572  0.15139
[ bonds ]
25518 25519     1  0.09572  0.15139
[ bonds ]
25518 25520     1  0.09572  0.15139
[ bonds ]
25521 25522     1  0.09572  0.15139
[ bonds ]
25521 25523     1  0.09572  0.15139
[ bonds ]
25524 25525     1  0.09572  0.15139
[ bonds ]
25524 25526     1  0.09572  0.15139
[ bonds ]
25527 25528     1  0.09572  0.15139
[ bonds ]
25527 25529     1  0.09572  0.15139
[ bonds ]
25530 25531     1  0.09572  0.15139
[ bonds ]
25530 25532     1  0.09572  0.15139
[ bonds ]
25533 25534     1  0.09572  0.15139
[ bonds ]
25533 25535     1  0.09572  0.15139
[ bonds ]
25536 25537     1  0.09572  0.15139
[ bonds ]
25536 25538     1  0.09572  0.15139
[ bonds ]
25539 25540     1  0.09572  0.15139
[ bonds ]
25539 25541     1  0.09572  0.15139
[ bonds ]
25542 25543     1  0.09572  0.15139
[ bonds ]
25542 25544     1  0.09572  0.15139
[ bonds ]
25545 25546     1  0.09572  0.15139
[ bonds ]
25545 25547     1  0.09572  0.15139
[ bonds ]
25548 25549     1  0.09572  0.15139
[ bonds ]
25548 25550     1  0.09572  0.15139
[ bonds ]
25551 25552     1  0.09572  0.15139
[ bonds ]
25551 25553     1  0.09572  0.15139
[ bonds ]
25554 25555     1  0.09572  0.15139
[ bonds ]
25554 25556     1  0.09572  0.15139
[ bonds ]
25557 25558     1  0.09572  0.15139
[ bonds ]
25557 25559     1  0.09572  0.15139
[ bonds ]
25560 25561     1  0.09572  0.15139
[ bonds ]
25560 25562     1  0.09572  0.15139
[ bonds ]
25563 25564     1  0.09572  0.15139
[ bonds ]
25563 25565     1  0.09572  0.15139
[ bonds ]
25566 25567     1  0.09572  0.15139
[ bonds ]
25566 25568     1  0.09572  0.15139
[ bonds ]
25569 25570     1  0.09572  0.15139
[ bonds ]
25569 25571     1  0.09572  0.15139
[ bonds ]
25572 25573     1  0.09572  0.15139
[ bonds ]
25572 25574     1  0.09572  0.15139
[ bonds ]
25575 25576     1  0.09572  0.15139
[ bonds ]
25575 25577     1  0.09572  0.15139
[ bonds ]
25578 25579     1  0.09572  0.15139
[ bonds ]
25578 25580     1  0.09572  0.15139
[ bonds ]
25581 25582     1  0.09572  0.15139
[ bonds ]
25581 25583     1  0.09572  0.15139
[ bonds ]
25584 25585     1  0.09572  0.15139
[ bonds ]
25584 25586     1  0.09572  0.15139
[ bonds ]
25587 25588     1  0.09572  0.15139
[ bonds ]
25587 25589     1  0.09572  0.15139
[ bonds ]
25590 25591     1  0.09572  0.15139
[ bonds ]
25590 25592     1  0.09572  0.15139
[ bonds ]
25593 25594     1  0.09572  0.15139
[ bonds ]
25593 25595     1  0.09572  0.15139
[ bonds ]
25596 25597     1  0.09572  0.15139
[ bonds ]
25596 25598     1  0.09572  0.15139
[ bonds ]
25599 25600     1  0.09572  0.15139
[ bonds ]
25599 25601     1  0.09572  0.15139
[ bonds ]
25602 25603     1  0.09572  0.15139
[ bonds ]
25602 25604     1  0.09572  0.15139
[ bonds ]
25605 25606     1  0.09572  0.15139
[ bonds ]
25605 25607     1  0.09572  0.15139
[ bonds ]
25608 25609     1  0.09572  0.15139
[ bonds ]
25608 25610     1  0.09572  0.15139
[ bonds ]
25611 25612     1  0.09572  0.15139
[ bonds ]
25611 25613     1  0.09572  0.15139
[ bonds ]
25614 25615     1  0.09572  0.15139
[ bonds ]
25614 25616     1  0.09572  0.15139
[ bonds ]
25617 25618     1  0.09572  0.15139
[ bonds ]
25617 25619     1  0.09572  0.15139
[ bonds ]
25620 25621     1  0.09572  0.15139
[ bonds ]
25620 25622     1  0.09572  0.15139
[ bonds ]
25623 25624     1  0.09572  0.15139
[ bonds ]
25623 25625     1  0.09572  0.15139
[ bonds ]
25626 25627     1  0.09572  0.15139
[ bonds ]
25626 25628     1  0.09572  0.15139
[ bonds ]
25629 25630     1  0.09572  0.15139
[ bonds ]
25629 25631     1  0.09572  0.15139
[ bonds ]
25632 25633     1  0.09572  0.15139
[ bonds ]
25632 25634     1  0.09572  0.15139
[ bonds ]
25635 25636     1  0.09572  0.15139
[ bonds ]
25635 25637     1  0.09572  0.15139
[ bonds ]
25638 25639     1  0.09572  0.15139
[ bonds ]
25638 25640     1  0.09572  0.15139
[ bonds ]
25641 25642     1  0.09572  0.15139
[ bonds ]
25641 25643     1  0.09572  0.15139
[ bonds ]
25644 25645     1  0.09572  0.15139
[ bonds ]
25644 25646     1  0.09572  0.15139
[ bonds ]
25647 25648     1  0.09572  0.15139
[ bonds ]
25647 25649     1  0.09572  0.15139
[ bonds ]
25650 25651     1  0.09572  0.15139
[ bonds ]
25650 25652     1  0.09572  0.15139
[ bonds ]
25653 25654     1  0.09572  0.15139
[ bonds ]
25653 25655     1  0.09572  0.15139
[ bonds ]
25656 25657     1  0.09572  0.15139
[ bonds ]
25656 25658     1  0.09572  0.15139
[ bonds ]
25659 25660     1  0.09572  0.15139
[ bonds ]
25659 25661     1  0.09572  0.15139
[ bonds ]
25662 25663     1  0.09572  0.15139
[ bonds ]
25662 25664     1  0.09572  0.15139
[ bonds ]
25665 25666     1  0.09572  0.15139
[ bonds ]
25665 25667     1  0.09572  0.15139
[ bonds ]
25668 25669     1  0.09572  0.15139
[ bonds ]
25668 25670     1  0.09572  0.15139
[ bonds ]
25671 25672     1  0.09572  0.15139
[ bonds ]
25671 25673     1  0.09572  0.15139
[ bonds ]
25674 25675     1  0.09572  0.15139
[ bonds ]
25674 25676     1  0.09572  0.15139
[ bonds ]
25677 25678     1  0.09572  0.15139
[ bonds ]
25677 25679     1  0.09572  0.15139
[ bonds ]
25680 25681     1  0.09572  0.15139
[ bonds ]
25680 25682     1  0.09572  0.15139
[ bonds ]
25683 25684     1  0.09572  0.15139
[ bonds ]
25683 25685     1  0.09572  0.15139
[ bonds ]
25686 25687     1  0.09572  0.15139
[ bonds ]
25686 25688     1  0.09572  0.15139
[ bonds ]
25689 25690     1  0.09572  0.15139
[ bonds ]
25689 25691     1  0.09572  0.15139
[ bonds ]
25692 25693     1  0.09572  0.15139
[ bonds ]
25692 25694     1  0.09572  0.15139
[ bonds ]
25695 25696     1  0.09572  0.15139
[ bonds ]
25695 25697     1  0.09572  0.15139
[ bonds ]
25698 25699     1  0.09572  0.15139
[ bonds ]
25698 25700     1  0.09572  0.15139
[ bonds ]
25701 25702     1  0.09572  0.15139
[ bonds ]
25701 25703     1  0.09572  0.15139
[ bonds ]
25704 25705     1  0.09572  0.15139
[ bonds ]
25704 25706     1  0.09572  0.15139
[ bonds ]
25707 25708     1  0.09572  0.15139
[ bonds ]
25707 25709     1  0.09572  0.15139
[ bonds ]
25710 25711     1  0.09572  0.15139
[ bonds ]
25710 25712     1  0.09572  0.15139
[ bonds ]
25713 25714     1  0.09572  0.15139
[ bonds ]
25713 25715     1  0.09572  0.15139
[ bonds ]
25716 25717     1  0.09572  0.15139
[ bonds ]
25716 25718     1  0.09572  0.15139
[ bonds ]
25719 25720     1  0.09572  0.15139
[ bonds ]
25719 25721     1  0.09572  0.15139
[ bonds ]
25722 25723     1  0.09572  0.15139
[ bonds ]
25722 25724     1  0.09572  0.15139
[ bonds ]
25725 25726     1  0.09572  0.15139
[ bonds ]
25725 25727     1  0.09572  0.15139
[ bonds ]
25728 25729     1  0.09572  0.15139
[ bonds ]
25728 25730     1  0.09572  0.15139
[ bonds ]
25731 25732     1  0.09572  0.15139
[ bonds ]
25731 25733     1  0.09572  0.15139
[ bonds ]
25734 25735     1  0.09572  0.15139
[ bonds ]
25734 25736     1  0.09572  0.15139
[ bonds ]
25737 25738     1  0.09572  0.15139
[ bonds ]
25737 25739     1  0.09572  0.15139
[ bonds ]
25740 25741     1  0.09572  0.15139
[ bonds ]
25740 25742     1  0.09572  0.15139
[ bonds ]
25743 25744     1  0.09572  0.15139
[ bonds ]
25743 25745     1  0.09572  0.15139
[ bonds ]
25746 25747     1  0.09572  0.15139
[ bonds ]
25746 25748     1  0.09572  0.15139
[ bonds ]
25749 25750     1  0.09572  0.15139
[ bonds ]
25749 25751     1  0.09572  0.15139
[ bonds ]
25752 25753     1  0.09572  0.15139
[ bonds ]
25752 25754     1  0.09572  0.15139
[ bonds ]
25755 25756     1  0.09572  0.15139
[ bonds ]
25755 25757     1  0.09572  0.15139
[ bonds ]
25758 25759     1  0.09572  0.15139
[ bonds ]
25758 25760     1  0.09572  0.15139
[ bonds ]
25761 25762     1  0.09572  0.15139
[ bonds ]
25761 25763     1  0.09572  0.15139
[ bonds ]
25764 25765     1  0.09572  0.15139
[ bonds ]
25764 25766     1  0.09572  0.15139
[ bonds ]
25767 25768     1  0.09572  0.15139
[ bonds ]
25767 25769     1  0.09572  0.15139
[ bonds ]
25770 25771     1  0.09572  0.15139
[ bonds ]
25770 25772     1  0.09572  0.15139
[ bonds ]
25773 25774     1  0.09572  0.15139
[ bonds ]
25773 25775     1  0.09572  0.15139
[ bonds ]
25776 25777     1  0.09572  0.15139
[ bonds ]
25776 25778     1  0.09572  0.15139
[ bonds ]
25779 25780     1  0.09572  0.15139
[ bonds ]
25779 25781     1  0.09572  0.15139
[ bonds ]
25782 25783     1  0.09572  0.15139
[ bonds ]
25782 25784     1  0.09572  0.15139
[ bonds ]
25785 25786     1  0.09572  0.15139
[ bonds ]
25785 25787     1  0.09572  0.15139
[ bonds ]
25788 25789     1  0.09572  0.15139
[ bonds ]
25788 25790     1  0.09572  0.15139
[ bonds ]
25791 25792     1  0.09572  0.15139
[ bonds ]
25791 25793     1  0.09572  0.15139
[ bonds ]
25794 25795     1  0.09572  0.15139
[ bonds ]
25794 25796     1  0.09572  0.15139
[ bonds ]
25797 25798     1  0.09572  0.15139
[ bonds ]
25797 25799     1  0.09572  0.15139
[ bonds ]
25800 25801     1  0.09572  0.15139
[ bonds ]
25800 25802     1  0.09572  0.15139
[ bonds ]
25803 25804     1  0.09572  0.15139
[ bonds ]
25803 25805     1  0.09572  0.15139
[ bonds ]
25806 25807     1  0.09572  0.15139
[ bonds ]
25806 25808     1  0.09572  0.15139
[ bonds ]
25809 25810     1  0.09572  0.15139
[ bonds ]
25809 25811     1  0.09572  0.15139
[ bonds ]
25812 25813     1  0.09572  0.15139
[ bonds ]
25812 25814     1  0.09572  0.15139
[ bonds ]
25815 25816     1  0.09572  0.15139
[ bonds ]
25815 25817     1  0.09572  0.15139
[ bonds ]
25818 25819     1  0.09572  0.15139
[ bonds ]
25818 25820     1  0.09572  0.15139
[ bonds ]
25821 25822     1  0.09572  0.15139
[ bonds ]
25821 25823     1  0.09572  0.15139
[ bonds ]
25824 25825     1  0.09572  0.15139
[ bonds ]
25824 25826     1  0.09572  0.15139
[ bonds ]
25827 25828     1  0.09572  0.15139
[ bonds ]
25827 25829     1  0.09572  0.15139
[ bonds ]
25830 25831     1  0.09572  0.15139
[ bonds ]
25830 25832     1  0.09572  0.15139
[ bonds ]
25833 25834     1  0.09572  0.15139
[ bonds ]
25833 25835     1  0.09572  0.15139
[ bonds ]
25836 25837     1  0.09572  0.15139
[ bonds ]
25836 25838     1  0.09572  0.15139
[ bonds ]
25839 25840     1  0.09572  0.15139
[ bonds ]
25839 25841     1  0.09572  0.15139
[ bonds ]
25842 25843     1  0.09572  0.15139
[ bonds ]
25842 25844     1  0.09572  0.15139
[ bonds ]
25845 25846     1  0.09572  0.15139
[ bonds ]
25845 25847     1  0.09572  0.15139
[ bonds ]
25848 25849     1  0.09572  0.15139
[ bonds ]
25848 25850     1  0.09572  0.15139
[ bonds ]
25851 25852     1  0.09572  0.15139
[ bonds ]
25851 25853     1  0.09572  0.15139
[ bonds ]
25854 25855     1  0.09572  0.15139
[ bonds ]
25854 25856     1  0.09572  0.15139
[ bonds ]
25857 25858     1  0.09572  0.15139
[ bonds ]
25857 25859     1  0.09572  0.15139
[ bonds ]
25860 25861     1  0.09572  0.15139
[ bonds ]
25860 25862     1  0.09572  0.15139
[ bonds ]
25863 25864     1  0.09572  0.15139
[ bonds ]
25863 25865     1  0.09572  0.15139
[ bonds ]
25866 25867     1  0.09572  0.15139
[ bonds ]
25866 25868     1  0.09572  0.15139
[ bonds ]
25869 25870     1  0.09572  0.15139
[ bonds ]
25869 25871     1  0.09572  0.15139
[ bonds ]
25872 25873     1  0.09572  0.15139
[ bonds ]
25872 25874     1  0.09572  0.15139
[ bonds ]
25875 25876     1  0.09572  0.15139
[ bonds ]
25875 25877     1  0.09572  0.15139
[ bonds ]
25878 25879     1  0.09572  0.15139
[ bonds ]
25878 25880     1  0.09572  0.15139
[ bonds ]
25881 25882     1  0.09572  0.15139
[ bonds ]
25881 25883     1  0.09572  0.15139
[ bonds ]
25884 25885     1  0.09572  0.15139
[ bonds ]
25884 25886     1  0.09572  0.15139
[ bonds ]
25887 25888     1  0.09572  0.15139
[ bonds ]
25887 25889     1  0.09572  0.15139
[ bonds ]
25890 25891     1  0.09572  0.15139
[ bonds ]
25890 25892     1  0.09572  0.15139
[ bonds ]
25893 25894     1  0.09572  0.15139
[ bonds ]
25893 25895     1  0.09572  0.15139
[ bonds ]
25896 25897     1  0.09572  0.15139
[ bonds ]
25896 25898     1  0.09572  0.15139
[ bonds ]
25899 25900     1  0.09572  0.15139
[ bonds ]
25899 25901     1  0.09572  0.15139
[ bonds ]
25902 25903     1  0.09572  0.15139
[ bonds ]
25902 25904     1  0.09572  0.15139
[ bonds ]
25905 25906     1  0.09572  0.15139
[ bonds ]
25905 25907     1  0.09572  0.15139
[ bonds ]
25908 25909     1  0.09572  0.15139
[ bonds ]
25908 25910     1  0.09572  0.15139
[ bonds ]
25911 25912     1  0.09572  0.15139
[ bonds ]
25911 25913     1  0.09572  0.15139
[ bonds ]
25914 25915     1  0.09572  0.15139
[ bonds ]
25914 25916     1  0.09572  0.15139
[ bonds ]
25917 25918     1  0.09572  0.15139
[ bonds ]
25917 25919     1  0.09572  0.15139
[ bonds ]
25920 25921     1  0.09572  0.15139
[ bonds ]
25920 25922     1  0.09572  0.15139
[ bonds ]
25923 25924     1  0.09572  0.15139
[ bonds ]
25923 25925     1  0.09572  0.15139
[ bonds ]
25926 25927     1  0.09572  0.15139
[ bonds ]
25926 25928     1  0.09572  0.15139
[ bonds ]
25929 25930     1  0.09572  0.15139
[ bonds ]
25929 25931     1  0.09572  0.15139
[ bonds ]
25932 25933     1  0.09572  0.15139
[ bonds ]
25932 25934     1  0.09572  0.15139
[ bonds ]
25935 25936     1  0.09572  0.15139
[ bonds ]
25935 25937     1  0.09572  0.15139
[ bonds ]
25938 25939     1  0.09572  0.15139
[ bonds ]
25938 25940     1  0.09572  0.15139
[ bonds ]
25941 25942     1  0.09572  0.15139
[ bonds ]
25941 25943     1  0.09572  0.15139
[ bonds ]
25944 25945     1  0.09572  0.15139
[ bonds ]
25944 25946     1  0.09572  0.15139
[ bonds ]
25947 25948     1  0.09572  0.15139
[ bonds ]
25947 25949     1  0.09572  0.15139
[ bonds ]
25950 25951     1  0.09572  0.15139
[ bonds ]
25950 25952     1  0.09572  0.15139
[ bonds ]
25953 25954     1  0.09572  0.15139
[ bonds ]
25953 25955     1  0.09572  0.15139
[ bonds ]
25956 25957     1  0.09572  0.15139
[ bonds ]
25956 25958     1  0.09572  0.15139
[ bonds ]
25959 25960     1  0.09572  0.15139
[ bonds ]
25959 25961     1  0.09572  0.15139
[ bonds ]
25962 25963     1  0.09572  0.15139
[ bonds ]
25962 25964     1  0.09572  0.15139
[ bonds ]
25965 25966     1  0.09572  0.15139
[ bonds ]
25965 25967     1  0.09572  0.15139
[ bonds ]
25968 25969     1  0.09572  0.15139
[ bonds ]
25968 25970     1  0.09572  0.15139
[ bonds ]
25971 25972     1  0.09572  0.15139
[ bonds ]
25971 25973     1  0.09572  0.15139
[ bonds ]
25974 25975     1  0.09572  0.15139
[ bonds ]
25974 25976     1  0.09572  0.15139
[ bonds ]
25977 25978     1  0.09572  0.15139
[ bonds ]
25977 25979     1  0.09572  0.15139
[ bonds ]
25980 25981     1  0.09572  0.15139
[ bonds ]
25980 25982     1  0.09572  0.15139
[ bonds ]
25983 25984     1  0.09572  0.15139
[ bonds ]
25983 25985     1  0.09572  0.15139
[ bonds ]
25986 25987     1  0.09572  0.15139
[ bonds ]
25986 25988     1  0.09572  0.15139
[ bonds ]
25989 25990     1  0.09572  0.15139
[ bonds ]
25989 25991     1  0.09572  0.15139
[ bonds ]
25992 25993     1  0.09572  0.15139
[ bonds ]
25992 25994     1  0.09572  0.15139
[ bonds ]
25995 25996     1  0.09572  0.15139
[ bonds ]
25995 25997     1  0.09572  0.15139
[ bonds ]
25998 25999     1  0.09572  0.15139
[ bonds ]
25998 26000     1  0.09572  0.15139
[ bonds ]
26001 26002     1  0.09572  0.15139
[ bonds ]
26001 26003     1  0.09572  0.15139
[ bonds ]
26004 26005     1  0.09572  0.15139
[ bonds ]
26004 26006     1  0.09572  0.15139
[ bonds ]
26007 26008     1  0.09572  0.15139
[ bonds ]
26007 26009     1  0.09572  0.15139
[ bonds ]
26010 26011     1  0.09572  0.15139
[ bonds ]
26010 26012     1  0.09572  0.15139
[ bonds ]
26013 26014     1  0.09572  0.15139
[ bonds ]
26013 26015     1  0.09572  0.15139
[ bonds ]
26016 26017     1  0.09572  0.15139
[ bonds ]
26016 26018     1  0.09572  0.15139
[ bonds ]
26019 26020     1  0.09572  0.15139
[ bonds ]
26019 26021     1  0.09572  0.15139
[ bonds ]
26022 26023     1  0.09572  0.15139
[ bonds ]
26022 26024     1  0.09572  0.15139
[ bonds ]
26025 26026     1  0.09572  0.15139
[ bonds ]
26025 26027     1  0.09572  0.15139
[ bonds ]
26028 26029     1  0.09572  0.15139
[ bonds ]
26028 26030     1  0.09572  0.15139
[ bonds ]
26031 26032     1  0.09572  0.15139
[ bonds ]
26031 26033     1  0.09572  0.15139
[ bonds ]
26034 26035     1  0.09572  0.15139
[ bonds ]
26034 26036     1  0.09572  0.15139
[ bonds ]
26037 26038     1  0.09572  0.15139
[ bonds ]
26037 26039     1  0.09572  0.15139
[ bonds ]
26040 26041     1  0.09572  0.15139
[ bonds ]
26040 26042     1  0.09572  0.15139
[ bonds ]
26043 26044     1  0.09572  0.15139
[ bonds ]
26043 26045     1  0.09572  0.15139
[ bonds ]
26046 26047     1  0.09572  0.15139
[ bonds ]
26046 26048     1  0.09572  0.15139
[ bonds ]
26049 26050     1  0.09572  0.15139
[ bonds ]
26049 26051     1  0.09572  0.15139
[ bonds ]
26052 26053     1  0.09572  0.15139
[ bonds ]
26052 26054     1  0.09572  0.15139
[ bonds ]
26055 26056     1  0.09572  0.15139
[ bonds ]
26055 26057     1  0.09572  0.15139
[ bonds ]
26058 26059     1  0.09572  0.15139
[ bonds ]
26058 26060     1  0.09572  0.15139
[ bonds ]
26061 26062     1  0.09572  0.15139
[ bonds ]
26061 26063     1  0.09572  0.15139
[ bonds ]
26064 26065     1  0.09572  0.15139
[ bonds ]
26064 26066     1  0.09572  0.15139
[ bonds ]
26067 26068     1  0.09572  0.15139
[ bonds ]
26067 26069     1  0.09572  0.15139
[ bonds ]
26070 26071     1  0.09572  0.15139
[ bonds ]
26070 26072     1  0.09572  0.15139
[ bonds ]
26073 26074     1  0.09572  0.15139
[ bonds ]
26073 26075     1  0.09572  0.15139
[ bonds ]
26076 26077     1  0.09572  0.15139
[ bonds ]
26076 26078     1  0.09572  0.15139
[ bonds ]
26079 26080     1  0.09572  0.15139
[ bonds ]
26079 26081     1  0.09572  0.15139
[ bonds ]
26082 26083     1  0.09572  0.15139
[ bonds ]
26082 26084     1  0.09572  0.15139
[ bonds ]
26085 26086     1  0.09572  0.15139
[ bonds ]
26085 26087     1  0.09572  0.15139
[ bonds ]
26088 26089     1  0.09572  0.15139
[ bonds ]
26088 26090     1  0.09572  0.15139
[ bonds ]
26091 26092     1  0.09572  0.15139
[ bonds ]
26091 26093     1  0.09572  0.15139
[ bonds ]
26094 26095     1  0.09572  0.15139
[ bonds ]
26094 26096     1  0.09572  0.15139
[ bonds ]
26097 26098     1  0.09572  0.15139
[ bonds ]
26097 26099     1  0.09572  0.15139
[ bonds ]
26100 26101     1  0.09572  0.15139
[ bonds ]
26100 26102     1  0.09572  0.15139
[ bonds ]
26103 26104     1  0.09572  0.15139
[ bonds ]
26103 26105     1  0.09572  0.15139
[ bonds ]
26106 26107     1  0.09572  0.15139
[ bonds ]
26106 26108     1  0.09572  0.15139
[ bonds ]
26109 26110     1  0.09572  0.15139
[ bonds ]
26109 26111     1  0.09572  0.15139
[ bonds ]
26112 26113     1  0.09572  0.15139
[ bonds ]
26112 26114     1  0.09572  0.15139
[ bonds ]
26115 26116     1  0.09572  0.15139
[ bonds ]
26115 26117     1  0.09572  0.15139
[ bonds ]
26118 26119     1  0.09572  0.15139
[ bonds ]
26118 26120     1  0.09572  0.15139
[ bonds ]
26121 26122     1  0.09572  0.15139
[ bonds ]
26121 26123     1  0.09572  0.15139
[ bonds ]
26124 26125     1  0.09572  0.15139
[ bonds ]
26124 26126     1  0.09572  0.15139
[ bonds ]
26127 26128     1  0.09572  0.15139
[ bonds ]
26127 26129     1  0.09572  0.15139
[ bonds ]
26130 26131     1  0.09572  0.15139
[ bonds ]
26130 26132     1  0.09572  0.15139
[ bonds ]
26133 26134     1  0.09572  0.15139
[ bonds ]
26133 26135     1  0.09572  0.15139
[ bonds ]
26136 26137     1  0.09572  0.15139
[ bonds ]
26136 26138     1  0.09572  0.15139
[ bonds ]
26139 26140     1  0.09572  0.15139
[ bonds ]
26139 26141     1  0.09572  0.15139
[ bonds ]
26142 26143     1  0.09572  0.15139
[ bonds ]
26142 26144     1  0.09572  0.15139
[ bonds ]
26145 26146     1  0.09572  0.15139
[ bonds ]
26145 26147     1  0.09572  0.15139
[ bonds ]
26148 26149     1  0.09572  0.15139
[ bonds ]
26148 26150     1  0.09572  0.15139
[ bonds ]
26151 26152     1  0.09572  0.15139
[ bonds ]
26151 26153     1  0.09572  0.15139
[ bonds ]
26154 26155     1  0.09572  0.15139
[ bonds ]
26154 26156     1  0.09572  0.15139
[ bonds ]
26157 26158     1  0.09572  0.15139
[ bonds ]
26157 26159     1  0.09572  0.15139
[ bonds ]
26160 26161     1  0.09572  0.15139
[ bonds ]
26160 26162     1  0.09572  0.15139
[ bonds ]
26163 26164     1  0.09572  0.15139
[ bonds ]
26163 26165     1  0.09572  0.15139
[ bonds ]
26166 26167     1  0.09572  0.15139
[ bonds ]
26166 26168     1  0.09572  0.15139
[ bonds ]
26169 26170     1  0.09572  0.15139
[ bonds ]
26169 26171     1  0.09572  0.15139
[ bonds ]
26172 26173     1  0.09572  0.15139
[ bonds ]
26172 26174     1  0.09572  0.15139
[ bonds ]
26175 26176     1  0.09572  0.15139
[ bonds ]
26175 26177     1  0.09572  0.15139
[ bonds ]
26178 26179     1  0.09572  0.15139
[ bonds ]
26178 26180     1  0.09572  0.15139
[ bonds ]
26181 26182     1  0.09572  0.15139
[ bonds ]
26181 26183     1  0.09572  0.15139
[ bonds ]
26184 26185     1  0.09572  0.15139
[ bonds ]
26184 26186     1  0.09572  0.15139
[ bonds ]
26187 26188     1  0.09572  0.15139
[ bonds ]
26187 26189     1  0.09572  0.15139
[ bonds ]
26190 26191     1  0.09572  0.15139
[ bonds ]
26190 26192     1  0.09572  0.15139
[ bonds ]
26193 26194     1  0.09572  0.15139
[ bonds ]
26193 26195     1  0.09572  0.15139
[ bonds ]
26196 26197     1  0.09572  0.15139
[ bonds ]
26196 26198     1  0.09572  0.15139
[ bonds ]
26199 26200     1  0.09572  0.15139
[ bonds ]
26199 26201     1  0.09572  0.15139
[ bonds ]
26202 26203     1  0.09572  0.15139
[ bonds ]
26202 26204     1  0.09572  0.15139
[ bonds ]
26205 26206     1  0.09572  0.15139
[ bonds ]
26205 26207     1  0.09572  0.15139
[ bonds ]
26208 26209     1  0.09572  0.15139
[ bonds ]
26208 26210     1  0.09572  0.15139
[ bonds ]
26211 26212     1  0.09572  0.15139
[ bonds ]
26211 26213     1  0.09572  0.15139
[ bonds ]
26214 26215     1  0.09572  0.15139
[ bonds ]
26214 26216     1  0.09572  0.15139
[ bonds ]
26217 26218     1  0.09572  0.15139
[ bonds ]
26217 26219     1  0.09572  0.15139
[ bonds ]
26220 26221     1  0.09572  0.15139
[ bonds ]
26220 26222     1  0.09572  0.15139
[ bonds ]
26223 26224     1  0.09572  0.15139
[ bonds ]
26223 26225     1  0.09572  0.15139
[ bonds ]
26226 26227     1  0.09572  0.15139
[ bonds ]
26226 26228     1  0.09572  0.15139
[ bonds ]
26229 26230     1  0.09572  0.15139
[ bonds ]
26229 26231     1  0.09572  0.15139
[ bonds ]
26232 26233     1  0.09572  0.15139
[ bonds ]
26232 26234     1  0.09572  0.15139
[ bonds ]
26235 26236     1  0.09572  0.15139
[ bonds ]
26235 26237     1  0.09572  0.15139
[ bonds ]
26238 26239     1  0.09572  0.15139
[ bonds ]
26238 26240     1  0.09572  0.15139
[ bonds ]
26241 26242     1  0.09572  0.15139
[ bonds ]
26241 26243     1  0.09572  0.15139
[ bonds ]
26244 26245     1  0.09572  0.15139
[ bonds ]
26244 26246     1  0.09572  0.15139
[ bonds ]
26247 26248     1  0.09572  0.15139
[ bonds ]
26247 26249     1  0.09572  0.15139
[ bonds ]
26250 26251     1  0.09572  0.15139
[ bonds ]
26250 26252     1  0.09572  0.15139
[ bonds ]
26253 26254     1  0.09572  0.15139
[ bonds ]
26253 26255     1  0.09572  0.15139
[ bonds ]
26256 26257     1  0.09572  0.15139
[ bonds ]
26256 26258     1  0.09572  0.15139
[ bonds ]
26259 26260     1  0.09572  0.15139
[ bonds ]
26259 26261     1  0.09572  0.15139
[ bonds ]
26262 26263     1  0.09572  0.15139
[ bonds ]
26262 26264     1  0.09572  0.15139
[ bonds ]
26265 26266     1  0.09572  0.15139
[ bonds ]
26265 26267     1  0.09572  0.15139
[ bonds ]
26268 26269     1  0.09572  0.15139
[ bonds ]
26268 26270     1  0.09572  0.15139
[ bonds ]
26271 26272     1  0.09572  0.15139
[ bonds ]
26271 26273     1  0.09572  0.15139
[ bonds ]
26274 26275     1  0.09572  0.15139
[ bonds ]
26274 26276     1  0.09572  0.15139
[ bonds ]
26277 26278     1  0.09572  0.15139
[ bonds ]
26277 26279     1  0.09572  0.15139
[ bonds ]
26280 26281     1  0.09572  0.15139
[ bonds ]
26280 26282     1  0.09572  0.15139
[ bonds ]
26283 26284     1  0.09572  0.15139
[ bonds ]
26283 26285     1  0.09572  0.15139
[ bonds ]
26286 26287     1  0.09572  0.15139
[ bonds ]
26286 26288     1  0.09572  0.15139
[ bonds ]
26289 26290     1  0.09572  0.15139
[ bonds ]
26289 26291     1  0.09572  0.15139
[ bonds ]
26292 26293     1  0.09572  0.15139
[ bonds ]
26292 26294     1  0.09572  0.15139
[ bonds ]
26295 26296     1  0.09572  0.15139
[ bonds ]
26295 26297     1  0.09572  0.15139
[ bonds ]
26298 26299     1  0.09572  0.15139
[ bonds ]
26298 26300     1  0.09572  0.15139
[ bonds ]
26301 26302     1  0.09572  0.15139
[ bonds ]
26301 26303     1  0.09572  0.15139
[ bonds ]
26304 26305     1  0.09572  0.15139
[ bonds ]
26304 26306     1  0.09572  0.15139
[ bonds ]
26307 26308     1  0.09572  0.15139
[ bonds ]
26307 26309     1  0.09572  0.15139
[ bonds ]
26310 26311     1  0.09572  0.15139
[ bonds ]
26310 26312     1  0.09572  0.15139
[ bonds ]
26313 26314     1  0.09572  0.15139
[ bonds ]
26313 26315     1  0.09572  0.15139
[ bonds ]
26316 26317     1  0.09572  0.15139
[ bonds ]
26316 26318     1  0.09572  0.15139
[ bonds ]
26319 26320     1  0.09572  0.15139
[ bonds ]
26319 26321     1  0.09572  0.15139
[ bonds ]
26322 26323     1  0.09572  0.15139
[ bonds ]
26322 26324     1  0.09572  0.15139
[ bonds ]
26325 26326     1  0.09572  0.15139
[ bonds ]
26325 26327     1  0.09572  0.15139
[ bonds ]
26328 26329     1  0.09572  0.15139
[ bonds ]
26328 26330     1  0.09572  0.15139
[ bonds ]
26331 26332     1  0.09572  0.15139
[ bonds ]
26331 26333     1  0.09572  0.15139
[ bonds ]
26334 26335     1  0.09572  0.15139
[ bonds ]
26334 26336     1  0.09572  0.15139
[ bonds ]
26337 26338     1  0.09572  0.15139
[ bonds ]
26337 26339     1  0.09572  0.15139
[ bonds ]
26340 26341     1  0.09572  0.15139
[ bonds ]
26340 26342     1  0.09572  0.15139
[ bonds ]
26343 26344     1  0.09572  0.15139
[ bonds ]
26343 26345     1  0.09572  0.15139
[ bonds ]
26346 26347     1  0.09572  0.15139
[ bonds ]
26346 26348     1  0.09572  0.15139
[ bonds ]
26349 26350     1  0.09572  0.15139
[ bonds ]
26349 26351     1  0.09572  0.15139
[ bonds ]
26352 26353     1  0.09572  0.15139
[ bonds ]
26352 26354     1  0.09572  0.15139
[ bonds ]
26355 26356     1  0.09572  0.15139
[ bonds ]
26355 26357     1  0.09572  0.15139
[ bonds ]
26358 26359     1  0.09572  0.15139
[ bonds ]
26358 26360     1  0.09572  0.15139
[ bonds ]
26361 26362     1  0.09572  0.15139
[ bonds ]
26361 26363     1  0.09572  0.15139
[ bonds ]
26364 26365     1  0.09572  0.15139
[ bonds ]
26364 26366     1  0.09572  0.15139
[ bonds ]
26367 26368     1  0.09572  0.15139
[ bonds ]
26367 26369     1  0.09572  0.15139
[ bonds ]
26370 26371     1  0.09572  0.15139
[ bonds ]
26370 26372     1  0.09572  0.15139
[ bonds ]
26373 26374     1  0.09572  0.15139
[ bonds ]
26373 26375     1  0.09572  0.15139
[ bonds ]
26376 26377     1  0.09572  0.15139
[ bonds ]
26376 26378     1  0.09572  0.15139
[ bonds ]
26379 26380     1  0.09572  0.15139
[ bonds ]
26379 26381     1  0.09572  0.15139
[ bonds ]
26382 26383     1  0.09572  0.15139
[ bonds ]
26382 26384     1  0.09572  0.15139
[ bonds ]
26385 26386     1  0.09572  0.15139
[ bonds ]
26385 26387     1  0.09572  0.15139
[ bonds ]
26388 26389     1  0.09572  0.15139
[ bonds ]
26388 26390     1  0.09572  0.15139
[ bonds ]
26391 26392     1  0.09572  0.15139
[ bonds ]
26391 26393     1  0.09572  0.15139
[ bonds ]
26394 26395     1  0.09572  0.15139
[ bonds ]
26394 26396     1  0.09572  0.15139
[ bonds ]
26397 26398     1  0.09572  0.15139
[ bonds ]
26397 26399     1  0.09572  0.15139
[ bonds ]
26400 26401     1  0.09572  0.15139
[ bonds ]
26400 26402     1  0.09572  0.15139
[ bonds ]
26403 26404     1  0.09572  0.15139
[ bonds ]
26403 26405     1  0.09572  0.15139
[ bonds ]
26406 26407     1  0.09572  0.15139
[ bonds ]
26406 26408     1  0.09572  0.15139
[ bonds ]
26409 26410     1  0.09572  0.15139
[ bonds ]
26409 26411     1  0.09572  0.15139
[ bonds ]
26412 26413     1  0.09572  0.15139
[ bonds ]
26412 26414     1  0.09572  0.15139
[ bonds ]
26415 26416     1  0.09572  0.15139
[ bonds ]
26415 26417     1  0.09572  0.15139
[ bonds ]
26418 26419     1  0.09572  0.15139
[ bonds ]
26418 26420     1  0.09572  0.15139
[ bonds ]
26421 26422     1  0.09572  0.15139
[ bonds ]
26421 26423     1  0.09572  0.15139
[ bonds ]
26424 26425     1  0.09572  0.15139
[ bonds ]
26424 26426     1  0.09572  0.15139
[ bonds ]
26427 26428     1  0.09572  0.15139
[ bonds ]
26427 26429     1  0.09572  0.15139
[ bonds ]
26430 26431     1  0.09572  0.15139
[ bonds ]
26430 26432     1  0.09572  0.15139
[ bonds ]
26433 26434     1  0.09572  0.15139
[ bonds ]
26433 26435     1  0.09572  0.15139
[ bonds ]
26436 26437     1  0.09572  0.15139
[ bonds ]
26436 26438     1  0.09572  0.15139
[ bonds ]
26439 26440     1  0.09572  0.15139
[ bonds ]
26439 26441     1  0.09572  0.15139
[ bonds ]
26442 26443     1  0.09572  0.15139
[ bonds ]
26442 26444     1  0.09572  0.15139
[ bonds ]
26445 26446     1  0.09572  0.15139
[ bonds ]
26445 26447     1  0.09572  0.15139
[ bonds ]
26448 26449     1  0.09572  0.15139
[ bonds ]
26448 26450     1  0.09572  0.15139
[ bonds ]
26451 26452     1  0.09572  0.15139
[ bonds ]
26451 26453     1  0.09572  0.15139
[ bonds ]
26454 26455     1  0.09572  0.15139
[ bonds ]
26454 26456     1  0.09572  0.15139
[ bonds ]
26457 26458     1  0.09572  0.15139
[ bonds ]
26457 26459     1  0.09572  0.15139
[ bonds ]
26460 26461     1  0.09572  0.15139
[ bonds ]
26460 26462     1  0.09572  0.15139
[ bonds ]
26463 26464     1  0.09572  0.15139
[ bonds ]
26463 26465     1  0.09572  0.15139
[ bonds ]
26466 26467     1  0.09572  0.15139
[ bonds ]
26466 26468     1  0.09572  0.15139
[ bonds ]
26469 26470     1  0.09572  0.15139
[ bonds ]
26469 26471     1  0.09572  0.15139
[ bonds ]
26472 26473     1  0.09572  0.15139
[ bonds ]
26472 26474     1  0.09572  0.15139
[ bonds ]
26475 26476     1  0.09572  0.15139
[ bonds ]
26475 26477     1  0.09572  0.15139
[ bonds ]
26478 26479     1  0.09572  0.15139
[ bonds ]
26478 26480     1  0.09572  0.15139
[ bonds ]
26481 26482     1  0.09572  0.15139
[ bonds ]
26481 26483     1  0.09572  0.15139
[ bonds ]
26484 26485     1  0.09572  0.15139
[ bonds ]
26484 26486     1  0.09572  0.15139
[ bonds ]
26487 26488     1  0.09572  0.15139
[ bonds ]
26487 26489     1  0.09572  0.15139
[ bonds ]
26490 26491     1  0.09572  0.15139
[ bonds ]
26490 26492     1  0.09572  0.15139
[ bonds ]
26493 26494     1  0.09572  0.15139
[ bonds ]
26493 26495     1  0.09572  0.15139
[ bonds ]
26496 26497     1  0.09572  0.15139
[ bonds ]
26496 26498     1  0.09572  0.15139
[ bonds ]
26499 26500     1  0.09572  0.15139
[ bonds ]
26499 26501     1  0.09572  0.15139
[ bonds ]
26502 26503     1  0.09572  0.15139
[ bonds ]
26502 26504     1  0.09572  0.15139
[ bonds ]
26505 26506     1  0.09572  0.15139
[ bonds ]
26505 26507     1  0.09572  0.15139
[ bonds ]
26508 26509     1  0.09572  0.15139
[ bonds ]
26508 26510     1  0.09572  0.15139
[ bonds ]
26511 26512     1  0.09572  0.15139
[ bonds ]
26511 26513     1  0.09572  0.15139
[ bonds ]
26514 26515     1  0.09572  0.15139
[ bonds ]
26514 26516     1  0.09572  0.15139
[ bonds ]
26517 26518     1  0.09572  0.15139
[ bonds ]
26517 26519     1  0.09572  0.15139
[ bonds ]
26520 26521     1  0.09572  0.15139
[ bonds ]
26520 26522     1  0.09572  0.15139
[ bonds ]
26523 26524     1  0.09572  0.15139
[ bonds ]
26523 26525     1  0.09572  0.15139
[ bonds ]
26526 26527     1  0.09572  0.15139
[ bonds ]
26526 26528     1  0.09572  0.15139
[ bonds ]
26529 26530     1  0.09572  0.15139
[ bonds ]
26529 26531     1  0.09572  0.15139
[ bonds ]
26532 26533     1  0.09572  0.15139
[ bonds ]
26532 26534     1  0.09572  0.15139
[ bonds ]
26535 26536     1  0.09572  0.15139
[ bonds ]
26535 26537     1  0.09572  0.15139
[ bonds ]
26538 26539     1  0.09572  0.15139
[ bonds ]
26538 26540     1  0.09572  0.15139
[ bonds ]
26541 26542     1  0.09572  0.15139
[ bonds ]
26541 26543     1  0.09572  0.15139
[ bonds ]
26544 26545     1  0.09572  0.15139
[ bonds ]
26544 26546     1  0.09572  0.15139
[ bonds ]
26547 26548     1  0.09572  0.15139
[ bonds ]
26547 26549     1  0.09572  0.15139
[ bonds ]
26550 26551     1  0.09572  0.15139
[ bonds ]
26550 26552     1  0.09572  0.15139
[ bonds ]
26553 26554     1  0.09572  0.15139
[ bonds ]
26553 26555     1  0.09572  0.15139
[ bonds ]
26556 26557     1  0.09572  0.15139
[ bonds ]
26556 26558     1  0.09572  0.15139
[ bonds ]
26559 26560     1  0.09572  0.15139
[ bonds ]
26559 26561     1  0.09572  0.15139
[ bonds ]
26562 26563     1  0.09572  0.15139
[ bonds ]
26562 26564     1  0.09572  0.15139
[ bonds ]
26565 26566     1  0.09572  0.15139
[ bonds ]
26565 26567     1  0.09572  0.15139
[ bonds ]
26568 26569     1  0.09572  0.15139
[ bonds ]
26568 26570     1  0.09572  0.15139
[ bonds ]
26571 26572     1  0.09572  0.15139
[ bonds ]
26571 26573     1  0.09572  0.15139
[ bonds ]
26574 26575     1  0.09572  0.15139
[ bonds ]
26574 26576     1  0.09572  0.15139
[ bonds ]
26577 26578     1  0.09572  0.15139
[ bonds ]
26577 26579     1  0.09572  0.15139
[ bonds ]
26580 26581     1  0.09572  0.15139
[ bonds ]
26580 26582     1  0.09572  0.15139
[ bonds ]
26583 26584     1  0.09572  0.15139
[ bonds ]
26583 26585     1  0.09572  0.15139
[ bonds ]
26586 26587     1  0.09572  0.15139
[ bonds ]
26586 26588     1  0.09572  0.15139
[ bonds ]
26589 26590     1  0.09572  0.15139
[ bonds ]
26589 26591     1  0.09572  0.15139
[ bonds ]
26592 26593     1  0.09572  0.15139
[ bonds ]
26592 26594     1  0.09572  0.15139
[ bonds ]
26595 26596     1  0.09572  0.15139
[ bonds ]
26595 26597     1  0.09572  0.15139
[ bonds ]
26598 26599     1  0.09572  0.15139
[ bonds ]
26598 26600     1  0.09572  0.15139
[ bonds ]
26601 26602     1  0.09572  0.15139
[ bonds ]
26601 26603     1  0.09572  0.15139
[ bonds ]
26604 26605     1  0.09572  0.15139
[ bonds ]
26604 26606     1  0.09572  0.15139
[ bonds ]
26607 26608     1  0.09572  0.15139
[ bonds ]
26607 26609     1  0.09572  0.15139
[ bonds ]
26610 26611     1  0.09572  0.15139
[ bonds ]
26610 26612     1  0.09572  0.15139
[ bonds ]
26613 26614     1  0.09572  0.15139
[ bonds ]
26613 26615     1  0.09572  0.15139
[ bonds ]
26616 26617     1  0.09572  0.15139
[ bonds ]
26616 26618     1  0.09572  0.15139
[ bonds ]
26619 26620     1  0.09572  0.15139
[ bonds ]
26619 26621     1  0.09572  0.15139
[ bonds ]
26622 26623     1  0.09572  0.15139
[ bonds ]
26622 26624     1  0.09572  0.15139
[ bonds ]
26625 26626     1  0.09572  0.15139
[ bonds ]
26625 26627     1  0.09572  0.15139
[ bonds ]
26628 26629     1  0.09572  0.15139
[ bonds ]
26628 26630     1  0.09572  0.15139
[ bonds ]
26631 26632     1  0.09572  0.15139
[ bonds ]
26631 26633     1  0.09572  0.15139
[ bonds ]
26634 26635     1  0.09572  0.15139
[ bonds ]
26634 26636     1  0.09572  0.15139
[ bonds ]
26637 26638     1  0.09572  0.15139
[ bonds ]
26637 26639     1  0.09572  0.15139
[ bonds ]
26640 26641     1  0.09572  0.15139
[ bonds ]
26640 26642     1  0.09572  0.15139
[ bonds ]
26643 26644     1  0.09572  0.15139
[ bonds ]
26643 26645     1  0.09572  0.15139
[ bonds ]
26646 26647     1  0.09572  0.15139
[ bonds ]
26646 26648     1  0.09572  0.15139
[ bonds ]
26649 26650     1  0.09572  0.15139
[ bonds ]
26649 26651     1  0.09572  0.15139
[ bonds ]
26652 26653     1  0.09572  0.15139
[ bonds ]
26652 26654     1  0.09572  0.15139
[ bonds ]
26655 26656     1  0.09572  0.15139
[ bonds ]
26655 26657     1  0.09572  0.15139
[ bonds ]
26658 26659     1  0.09572  0.15139
[ bonds ]
26658 26660     1  0.09572  0.15139
[ bonds ]
26661 26662     1  0.09572  0.15139
[ bonds ]
26661 26663     1  0.09572  0.15139
[ bonds ]
26664 26665     1  0.09572  0.15139
[ bonds ]
26664 26666     1  0.09572  0.15139
[ bonds ]
26667 26668     1  0.09572  0.15139
[ bonds ]
26667 26669     1  0.09572  0.15139
[ bonds ]
26670 26671     1  0.09572  0.15139
[ bonds ]
26670 26672     1  0.09572  0.15139
[ bonds ]
26673 26674     1  0.09572  0.15139
[ bonds ]
26673 26675     1  0.09572  0.15139
[ bonds ]
26676 26677     1  0.09572  0.15139
[ bonds ]
26676 26678     1  0.09572  0.15139
[ bonds ]
26679 26680     1  0.09572  0.15139
[ bonds ]
26679 26681     1  0.09572  0.15139
[ bonds ]
26682 26683     1  0.09572  0.15139
[ bonds ]
26682 26684     1  0.09572  0.15139
[ bonds ]
26685 26686     1  0.09572  0.15139
[ bonds ]
26685 26687     1  0.09572  0.15139
[ bonds ]
26688 26689     1  0.09572  0.15139
[ bonds ]
26688 26690     1  0.09572  0.15139
[ bonds ]
26691 26692     1  0.09572  0.15139
[ bonds ]
26691 26693     1  0.09572  0.15139
[ bonds ]
26694 26695     1  0.09572  0.15139
[ bonds ]
26694 26696     1  0.09572  0.15139
[ bonds ]
26697 26698     1  0.09572  0.15139
[ bonds ]
26697 26699     1  0.09572  0.15139
[ bonds ]
26700 26701     1  0.09572  0.15139
[ bonds ]
26700 26702     1  0.09572  0.15139
[ bonds ]
26703 26704     1  0.09572  0.15139
[ bonds ]
26703 26705     1  0.09572  0.15139
[ bonds ]
26706 26707     1  0.09572  0.15139
[ bonds ]
26706 26708     1  0.09572  0.15139
[ bonds ]
26709 26710     1  0.09572  0.15139
[ bonds ]
26709 26711     1  0.09572  0.15139
[ bonds ]
26712 26713     1  0.09572  0.15139
[ bonds ]
26712 26714     1  0.09572  0.15139
[ bonds ]
26715 26716     1  0.09572  0.15139
[ bonds ]
26715 26717     1  0.09572  0.15139
[ bonds ]
26718 26719     1  0.09572  0.15139
[ bonds ]
26718 26720     1  0.09572  0.15139
[ bonds ]
26721 26722     1  0.09572  0.15139
[ bonds ]
26721 26723     1  0.09572  0.15139
[ bonds ]
26724 26725     1  0.09572  0.15139
[ bonds ]
26724 26726     1  0.09572  0.15139
[ bonds ]
26727 26728     1  0.09572  0.15139
[ bonds ]
26727 26729     1  0.09572  0.15139
[ bonds ]
26730 26731     1  0.09572  0.15139
[ bonds ]
26730 26732     1  0.09572  0.15139
[ bonds ]
26733 26734     1  0.09572  0.15139
[ bonds ]
26733 26735     1  0.09572  0.15139
[ bonds ]
26736 26737     1  0.09572  0.15139
[ bonds ]
26736 26738     1  0.09572  0.15139
[ bonds ]
26739 26740     1  0.09572  0.15139
[ bonds ]
26739 26741     1  0.09572  0.15139
[ bonds ]
26742 26743     1  0.09572  0.15139
[ bonds ]
26742 26744     1  0.09572  0.15139
[ bonds ]
26745 26746     1  0.09572  0.15139
[ bonds ]
26745 26747     1  0.09572  0.15139
[ bonds ]
26748 26749     1  0.09572  0.15139
[ bonds ]
26748 26750     1  0.09572  0.15139
[ bonds ]
26751 26752     1  0.09572  0.15139
[ bonds ]
26751 26753     1  0.09572  0.15139
[ bonds ]
26754 26755     1  0.09572  0.15139
[ bonds ]
26754 26756     1  0.09572  0.15139
[ bonds ]
26757 26758     1  0.09572  0.15139
[ bonds ]
26757 26759     1  0.09572  0.15139
[ bonds ]
26760 26761     1  0.09572  0.15139
[ bonds ]
26760 26762     1  0.09572  0.15139
[ bonds ]
26763 26764     1  0.09572  0.15139
[ bonds ]
26763 26765     1  0.09572  0.15139
[ bonds ]
26766 26767     1  0.09572  0.15139
[ bonds ]
26766 26768     1  0.09572  0.15139
[ bonds ]
26769 26770     1  0.09572  0.15139
[ bonds ]
26769 26771     1  0.09572  0.15139
[ bonds ]
26772 26773     1  0.09572  0.15139
[ bonds ]
26772 26774     1  0.09572  0.15139
[ bonds ]
26775 26776     1  0.09572  0.15139
[ bonds ]
26775 26777     1  0.09572  0.15139
[ bonds ]
26778 26779     1  0.09572  0.15139
[ bonds ]
26778 26780     1  0.09572  0.15139
[ bonds ]
26781 26782     1  0.09572  0.15139
[ bonds ]
26781 26783     1  0.09572  0.15139
[ bonds ]
26784 26785     1  0.09572  0.15139
[ bonds ]
26784 26786     1  0.09572  0.15139
[ bonds ]
26787 26788     1  0.09572  0.15139
[ bonds ]
26787 26789     1  0.09572  0.15139
[ bonds ]
26790 26791     1  0.09572  0.15139
[ bonds ]
26790 26792     1  0.09572  0.15139
[ bonds ]
26793 26794     1  0.09572  0.15139
[ bonds ]
26793 26795     1  0.09572  0.15139
[ bonds ]
26796 26797     1  0.09572  0.15139
[ bonds ]
26796 26798     1  0.09572  0.15139
[ bonds ]
26799 26800     1  0.09572  0.15139
[ bonds ]
26799 26801     1  0.09572  0.15139
[ bonds ]
26802 26803     1  0.09572  0.15139
[ bonds ]
26802 26804     1  0.09572  0.15139
[ bonds ]
26805 26806     1  0.09572  0.15139
[ bonds ]
26805 26807     1  0.09572  0.15139
[ bonds ]
26808 26809     1  0.09572  0.15139
[ bonds ]
26808 26810     1  0.09572  0.15139
[ bonds ]
26811 26812     1  0.09572  0.15139
[ bonds ]
26811 26813     1  0.09572  0.15139
[ bonds ]
26814 26815     1  0.09572  0.15139
[ bonds ]
26814 26816     1  0.09572  0.15139
[ bonds ]
26817 26818     1  0.09572  0.15139
[ bonds ]
26817 26819     1  0.09572  0.15139
[ bonds ]
26820 26821     1  0.09572  0.15139
[ bonds ]
26820 26822     1  0.09572  0.15139
[ bonds ]
26823 26824     1  0.09572  0.15139
[ bonds ]
26823 26825     1  0.09572  0.15139
[ bonds ]
26826 26827     1  0.09572  0.15139
[ bonds ]
26826 26828     1  0.09572  0.15139
[ bonds ]
26829 26830     1  0.09572  0.15139
[ bonds ]
26829 26831     1  0.09572  0.15139
[ bonds ]
26832 26833     1  0.09572  0.15139
[ bonds ]
26832 26834     1  0.09572  0.15139
[ bonds ]
26835 26836     1  0.09572  0.15139
[ bonds ]
26835 26837     1  0.09572  0.15139
[ bonds ]
26838 26839     1  0.09572  0.15139
[ bonds ]
26838 26840     1  0.09572  0.15139
[ bonds ]
26841 26842     1  0.09572  0.15139
[ bonds ]
26841 26843     1  0.09572  0.15139
[ bonds ]
26844 26845     1  0.09572  0.15139
[ bonds ]
26844 26846     1  0.09572  0.15139
[ bonds ]
26847 26848     1  0.09572  0.15139
[ bonds ]
26847 26849     1  0.09572  0.15139
[ bonds ]
26850 26851     1  0.09572  0.15139
[ bonds ]
26850 26852     1  0.09572  0.15139
[ bonds ]
26853 26854     1  0.09572  0.15139
[ bonds ]
26853 26855     1  0.09572  0.15139
[ bonds ]
26856 26857     1  0.09572  0.15139
[ bonds ]
26856 26858     1  0.09572  0.15139
[ bonds ]
26859 26860     1  0.09572  0.15139
[ bonds ]
26859 26861     1  0.09572  0.15139
[ bonds ]
26862 26863     1  0.09572  0.15139
[ bonds ]
26862 26864     1  0.09572  0.15139
[ bonds ]
26865 26866     1  0.09572  0.15139
[ bonds ]
26865 26867     1  0.09572  0.15139
[ bonds ]
26868 26869     1  0.09572  0.15139
[ bonds ]
26868 26870     1  0.09572  0.15139
[ bonds ]
26871 26872     1  0.09572  0.15139
[ bonds ]
26871 26873     1  0.09572  0.15139
[ bonds ]
26874 26875     1  0.09572  0.15139
[ bonds ]
26874 26876     1  0.09572  0.15139
[ bonds ]
26877 26878     1  0.09572  0.15139
[ bonds ]
26877 26879     1  0.09572  0.15139
[ bonds ]
26880 26881     1  0.09572  0.15139
[ bonds ]
26880 26882     1  0.09572  0.15139
[ bonds ]
26883 26884     1  0.09572  0.15139
[ bonds ]
26883 26885     1  0.09572  0.15139
[ bonds ]
26886 26887     1  0.09572  0.15139
[ bonds ]
26886 26888     1  0.09572  0.15139
[ bonds ]
26889 26890     1  0.09572  0.15139
[ bonds ]
26889 26891     1  0.09572  0.15139
[ bonds ]
26892 26893     1  0.09572  0.15139
[ bonds ]
26892 26894     1  0.09572  0.15139
[ bonds ]
26895 26896     1  0.09572  0.15139
[ bonds ]
26895 26897     1  0.09572  0.15139
[ bonds ]
26898 26899     1  0.09572  0.15139
[ bonds ]
26898 26900     1  0.09572  0.15139
[ bonds ]
26901 26902     1  0.09572  0.15139
[ bonds ]
26901 26903     1  0.09572  0.15139
[ bonds ]
26904 26905     1  0.09572  0.15139
[ bonds ]
26904 26906     1  0.09572  0.15139
[ bonds ]
26907 26908     1  0.09572  0.15139
[ bonds ]
26907 26909     1  0.09572  0.15139
[ bonds ]
26910 26911     1  0.09572  0.15139
[ bonds ]
26910 26912     1  0.09572  0.15139
[ bonds ]
26913 26914     1  0.09572  0.15139
[ bonds ]
26913 26915     1  0.09572  0.15139
[ bonds ]
26916 26917     1  0.09572  0.15139
[ bonds ]
26916 26918     1  0.09572  0.15139
[ bonds ]
26919 26920     1  0.09572  0.15139
[ bonds ]
26919 26921     1  0.09572  0.15139
[ bonds ]
26922 26923     1  0.09572  0.15139
[ bonds ]
26922 26924     1  0.09572  0.15139
[ bonds ]
26925 26926     1  0.09572  0.15139
[ bonds ]
26925 26927     1  0.09572  0.15139
[ bonds ]
26928 26929     1  0.09572  0.15139
[ bonds ]
26928 26930     1  0.09572  0.15139
[ bonds ]
26931 26932     1  0.09572  0.15139
[ bonds ]
26931 26933     1  0.09572  0.15139
[ bonds ]
26934 26935     1  0.09572  0.15139
[ bonds ]
26934 26936     1  0.09572  0.15139
[ bonds ]
26937 26938     1  0.09572  0.15139
[ bonds ]
26937 26939     1  0.09572  0.15139
[ bonds ]
26940 26941     1  0.09572  0.15139
[ bonds ]
26940 26942     1  0.09572  0.15139
[ bonds ]
26943 26944     1  0.09572  0.15139
[ bonds ]
26943 26945     1  0.09572  0.15139
[ bonds ]
26946 26947     1  0.09572  0.15139
[ bonds ]
26946 26948     1  0.09572  0.15139
[ bonds ]
26949 26950     1  0.09572  0.15139
[ bonds ]
26949 26951     1  0.09572  0.15139
[ bonds ]
26952 26953     1  0.09572  0.15139
[ bonds ]
26952 26954     1  0.09572  0.15139
[ bonds ]
26955 26956     1  0.09572  0.15139
[ bonds ]
26955 26957     1  0.09572  0.15139
[ bonds ]
26958 26959     1  0.09572  0.15139
[ bonds ]
26958 26960     1  0.09572  0.15139
[ bonds ]
26961 26962     1  0.09572  0.15139
[ bonds ]
26961 26963     1  0.09572  0.15139
[ bonds ]
26964 26965     1  0.09572  0.15139
[ bonds ]
26964 26966     1  0.09572  0.15139
[ bonds ]
26967 26968     1  0.09572  0.15139
[ bonds ]
26967 26969     1  0.09572  0.15139
[ bonds ]
26970 26971     1  0.09572  0.15139
[ bonds ]
26970 26972     1  0.09572  0.15139
[ bonds ]
26973 26974     1  0.09572  0.15139
[ bonds ]
26973 26975     1  0.09572  0.15139
[ bonds ]
26976 26977     1  0.09572  0.15139
[ bonds ]
26976 26978     1  0.09572  0.15139
[ bonds ]
26979 26980     1  0.09572  0.15139
[ bonds ]
26979 26981     1  0.09572  0.15139
[ bonds ]
26982 26983     1  0.09572  0.15139
[ bonds ]
26982 26984     1  0.09572  0.15139
[ bonds ]
26985 26986     1  0.09572  0.15139
[ bonds ]
26985 26987     1  0.09572  0.15139
[ bonds ]
26988 26989     1  0.09572  0.15139
[ bonds ]
26988 26990     1  0.09572  0.15139
[ bonds ]
26991 26992     1  0.09572  0.15139
[ bonds ]
26991 26993     1  0.09572  0.15139
[ bonds ]
26994 26995     1  0.09572  0.15139
[ bonds ]
26994 26996     1  0.09572  0.15139
[ bonds ]
26997 26998     1  0.09572  0.15139
[ bonds ]
26997 26999     1  0.09572  0.15139
[ bonds ]
27000 27001     1  0.09572  0.15139
[ bonds ]
27000 27002     1  0.09572  0.15139
[ bonds ]
27003 27004     1  0.09572  0.15139
[ bonds ]
27003 27005     1  0.09572  0.15139
[ bonds ]
27006 27007     1  0.09572  0.15139
[ bonds ]
27006 27008     1  0.09572  0.15139
[ bonds ]
27009 27010     1  0.09572  0.15139
[ bonds ]
27009 27011     1  0.09572  0.15139
[ bonds ]
27012 27013     1  0.09572  0.15139
[ bonds ]
27012 27014     1  0.09572  0.15139
[ bonds ]
27015 27016     1  0.09572  0.15139
[ bonds ]
27015 27017     1  0.09572  0.15139
[ bonds ]
27018 27019     1  0.09572  0.15139
[ bonds ]
27018 27020     1  0.09572  0.15139
[ bonds ]
27021 27022     1  0.09572  0.15139
[ bonds ]
27021 27023     1  0.09572  0.15139
[ bonds ]
27024 27025     1  0.09572  0.15139
[ bonds ]
27024 27026     1  0.09572  0.15139
[ bonds ]
27027 27028     1  0.09572  0.15139
[ bonds ]
27027 27029     1  0.09572  0.15139
[ bonds ]
27030 27031     1  0.09572  0.15139
[ bonds ]
27030 27032     1  0.09572  0.15139
[ bonds ]
27033 27034     1  0.09572  0.15139
[ bonds ]
27033 27035     1  0.09572  0.15139
[ bonds ]
27036 27037     1  0.09572  0.15139
[ bonds ]
27036 27038     1  0.09572  0.15139
[ bonds ]
27039 27040     1  0.09572  0.15139
[ bonds ]
27039 27041     1  0.09572  0.15139
[ bonds ]
27042 27043     1  0.09572  0.15139
[ bonds ]
27042 27044     1  0.09572  0.15139
[ bonds ]
27045 27046     1  0.09572  0.15139
[ bonds ]
27045 27047     1  0.09572  0.15139
[ bonds ]
27048 27049     1  0.09572  0.15139
[ bonds ]
27048 27050     1  0.09572  0.15139
[ bonds ]
27051 27052     1  0.09572  0.15139
[ bonds ]
27051 27053     1  0.09572  0.15139
[ bonds ]
27054 27055     1  0.09572  0.15139
[ bonds ]
27054 27056     1  0.09572  0.15139
[ bonds ]
27057 27058     1  0.09572  0.15139
[ bonds ]
27057 27059     1  0.09572  0.15139
[ bonds ]
27060 27061     1  0.09572  0.15139
[ bonds ]
27060 27062     1  0.09572  0.15139
[ bonds ]
27063 27064     1  0.09572  0.15139
[ bonds ]
27063 27065     1  0.09572  0.15139
[ bonds ]
27066 27067     1  0.09572  0.15139
[ bonds ]
27066 27068     1  0.09572  0.15139
[ bonds ]
27069 27070     1  0.09572  0.15139
[ bonds ]
27069 27071     1  0.09572  0.15139
[ bonds ]
27072 27073     1  0.09572  0.15139
[ bonds ]
27072 27074     1  0.09572  0.15139
[ bonds ]
27075 27076     1  0.09572  0.15139
[ bonds ]
27075 27077     1  0.09572  0.15139
[ bonds ]
27078 27079     1  0.09572  0.15139
[ bonds ]
27078 27080     1  0.09572  0.15139
[ bonds ]
27081 27082     1  0.09572  0.15139
[ bonds ]
27081 27083     1  0.09572  0.15139
[ bonds ]
27084 27085     1  0.09572  0.15139
[ bonds ]
27084 27086     1  0.09572  0.15139
[ bonds ]
27087 27088     1  0.09572  0.15139
[ bonds ]
27087 27089     1  0.09572  0.15139
[ bonds ]
27090 27091     1  0.09572  0.15139
[ bonds ]
27090 27092     1  0.09572  0.15139
[ bonds ]
27093 27094     1  0.09572  0.15139
[ bonds ]
27093 27095     1  0.09572  0.15139
[ bonds ]
27096 27097     1  0.09572  0.15139
[ bonds ]
27096 27098     1  0.09572  0.15139
[ bonds ]
27099 27100     1  0.09572  0.15139
[ bonds ]
27099 27101     1  0.09572  0.15139
[ bonds ]
27102 27103     1  0.09572  0.15139
[ bonds ]
27102 27104     1  0.09572  0.15139
[ bonds ]
27105 27106     1  0.09572  0.15139
[ bonds ]
27105 27107     1  0.09572  0.15139
[ bonds ]
27108 27109     1  0.09572  0.15139
[ bonds ]
27108 27110     1  0.09572  0.15139
[ bonds ]
27111 27112     1  0.09572  0.15139
[ bonds ]
27111 27113     1  0.09572  0.15139
[ bonds ]
27114 27115     1  0.09572  0.15139
[ bonds ]
27114 27116     1  0.09572  0.15139
[ bonds ]
27117 27118     1  0.09572  0.15139
[ bonds ]
27117 27119     1  0.09572  0.15139
[ bonds ]
27120 27121     1  0.09572  0.15139
[ bonds ]
27120 27122     1  0.09572  0.15139
[ bonds ]
27123 27124     1  0.09572  0.15139
[ bonds ]
27123 27125     1  0.09572  0.15139
[ bonds ]
27126 27127     1  0.09572  0.15139
[ bonds ]
27126 27128     1  0.09572  0.15139
[ bonds ]
27129 27130     1  0.09572  0.15139
[ bonds ]
27129 27131     1  0.09572  0.15139
[ bonds ]
27132 27133     1  0.09572  0.15139
[ bonds ]
27132 27134     1  0.09572  0.15139
[ bonds ]
27135 27136     1  0.09572  0.15139
[ bonds ]
27135 27137     1  0.09572  0.15139
[ bonds ]
27138 27139     1  0.09572  0.15139
[ bonds ]
27138 27140     1  0.09572  0.15139
[ bonds ]
27141 27142     1  0.09572  0.15139
[ bonds ]
27141 27143     1  0.09572  0.15139
[ bonds ]
27144 27145     1  0.09572  0.15139
[ bonds ]
27144 27146     1  0.09572  0.15139
[ bonds ]
27147 27148     1  0.09572  0.15139
[ bonds ]
27147 27149     1  0.09572  0.15139
[ bonds ]
27150 27151     1  0.09572  0.15139
[ bonds ]
27150 27152     1  0.09572  0.15139
[ bonds ]
27153 27154     1  0.09572  0.15139
[ bonds ]
27153 27155     1  0.09572  0.15139
[ bonds ]
27156 27157     1  0.09572  0.15139
[ bonds ]
27156 27158     1  0.09572  0.15139
[ bonds ]
27159 27160     1  0.09572  0.15139
[ bonds ]
27159 27161     1  0.09572  0.15139
[ bonds ]
27162 27163     1  0.09572  0.15139
[ bonds ]
27162 27164     1  0.09572  0.15139
[ bonds ]
27165 27166     1  0.09572  0.15139
[ bonds ]
27165 27167     1  0.09572  0.15139
[ bonds ]
27168 27169     1  0.09572  0.15139
[ bonds ]
27168 27170     1  0.09572  0.15139
[ bonds ]
27171 27172     1  0.09572  0.15139
[ bonds ]
27171 27173     1  0.09572  0.15139
[ bonds ]
27174 27175     1  0.09572  0.15139
[ bonds ]
27174 27176     1  0.09572  0.15139
[ bonds ]
27177 27178     1  0.09572  0.15139
[ bonds ]
27177 27179     1  0.09572  0.15139
[ bonds ]
27180 27181     1  0.09572  0.15139
[ bonds ]
27180 27182     1  0.09572  0.15139
[ bonds ]
27183 27184     1  0.09572  0.15139
[ bonds ]
27183 27185     1  0.09572  0.15139
[ bonds ]
27186 27187     1  0.09572  0.15139
[ bonds ]
27186 27188     1  0.09572  0.15139
[ bonds ]
27189 27190     1  0.09572  0.15139
[ bonds ]
27189 27191     1  0.09572  0.15139
[ bonds ]
27192 27193     1  0.09572  0.15139
[ bonds ]
27192 27194     1  0.09572  0.15139
[ bonds ]
27195 27196     1  0.09572  0.15139
[ bonds ]
27195 27197     1  0.09572  0.15139
[ bonds ]
27198 27199     1  0.09572  0.15139
[ bonds ]
27198 27200     1  0.09572  0.15139
[ bonds ]
27201 27202     1  0.09572  0.15139
[ bonds ]
27201 27203     1  0.09572  0.15139
[ bonds ]
27204 27205     1  0.09572  0.15139
[ bonds ]
27204 27206     1  0.09572  0.15139
[ bonds ]
27207 27208     1  0.09572  0.15139
[ bonds ]
27207 27209     1  0.09572  0.15139
[ bonds ]
27210 27211     1  0.09572  0.15139
[ bonds ]
27210 27212     1  0.09572  0.15139
[ bonds ]
27213 27214     1  0.09572  0.15139
[ bonds ]
27213 27215     1  0.09572  0.15139
[ bonds ]
27216 27217     1  0.09572  0.15139
[ bonds ]
27216 27218     1  0.09572  0.15139
[ bonds ]
27219 27220     1  0.09572  0.15139
[ bonds ]
27219 27221     1  0.09572  0.15139
[ bonds ]
27222 27223     1  0.09572  0.15139
[ bonds ]
27222 27224     1  0.09572  0.15139
[ bonds ]
27225 27226     1  0.09572  0.15139
[ bonds ]
27225 27227     1  0.09572  0.15139
[ bonds ]
27228 27229     1  0.09572  0.15139
[ bonds ]
27228 27230     1  0.09572  0.15139
[ bonds ]
27231 27232     1  0.09572  0.15139
[ bonds ]
27231 27233     1  0.09572  0.15139
[ bonds ]
27234 27235     1  0.09572  0.15139
[ bonds ]
27234 27236     1  0.09572  0.15139
[ bonds ]
27237 27238     1  0.09572  0.15139
[ bonds ]
27237 27239     1  0.09572  0.15139
[ bonds ]
27240 27241     1  0.09572  0.15139
[ bonds ]
27240 27242     1  0.09572  0.15139
[ bonds ]
27243 27244     1  0.09572  0.15139
[ bonds ]
27243 27245     1  0.09572  0.15139
[ bonds ]
27246 27247     1  0.09572  0.15139
[ bonds ]
27246 27248     1  0.09572  0.15139
[ bonds ]
27249 27250     1  0.09572  0.15139
[ bonds ]
27249 27251     1  0.09572  0.15139
[ bonds ]
27252 27253     1  0.09572  0.15139
[ bonds ]
27252 27254     1  0.09572  0.15139
[ bonds ]
27255 27256     1  0.09572  0.15139
[ bonds ]
27255 27257     1  0.09572  0.15139
[ bonds ]
27258 27259     1  0.09572  0.15139
[ bonds ]
27258 27260     1  0.09572  0.15139
[ bonds ]
27261 27262     1  0.09572  0.15139
[ bonds ]
27261 27263     1  0.09572  0.15139
[ bonds ]
27264 27265     1  0.09572  0.15139
[ bonds ]
27264 27266     1  0.09572  0.15139
[ bonds ]
27267 27268     1  0.09572  0.15139
[ bonds ]
27267 27269     1  0.09572  0.15139
[ bonds ]
27270 27271     1  0.09572  0.15139
[ bonds ]
27270 27272     1  0.09572  0.15139
[ bonds ]
27273 27274     1  0.09572  0.15139
[ bonds ]
27273 27275     1  0.09572  0.15139
[ bonds ]
27276 27277     1  0.09572  0.15139
[ bonds ]
27276 27278     1  0.09572  0.15139
[ bonds ]
27279 27280     1  0.09572  0.15139
[ bonds ]
27279 27281     1  0.09572  0.15139
[ bonds ]
27282 27283     1  0.09572  0.15139
[ bonds ]
27282 27284     1  0.09572  0.15139
[ bonds ]
27285 27286     1  0.09572  0.15139
[ bonds ]
27285 27287     1  0.09572  0.15139
[ bonds ]
27288 27289     1  0.09572  0.15139
[ bonds ]
27288 27290     1  0.09572  0.15139
[ bonds ]
27291 27292     1  0.09572  0.15139
[ bonds ]
27291 27293     1  0.09572  0.15139
[ bonds ]
27294 27295     1  0.09572  0.15139
[ bonds ]
27294 27296     1  0.09572  0.15139
[ bonds ]
27297 27298     1  0.09572  0.15139
[ bonds ]
27297 27299     1  0.09572  0.15139
[ bonds ]
27300 27301     1  0.09572  0.15139
[ bonds ]
27300 27302     1  0.09572  0.15139
[ bonds ]
27303 27304     1  0.09572  0.15139
[ bonds ]
27303 27305     1  0.09572  0.15139
[ bonds ]
27306 27307     1  0.09572  0.15139
[ bonds ]
27306 27308     1  0.09572  0.15139
[ bonds ]
27309 27310     1  0.09572  0.15139
[ bonds ]
27309 27311     1  0.09572  0.15139
[ bonds ]
27312 27313     1  0.09572  0.15139
[ bonds ]
27312 27314     1  0.09572  0.15139
[ bonds ]
27315 27316     1  0.09572  0.15139
[ bonds ]
27315 27317     1  0.09572  0.15139
[ bonds ]
27318 27319     1  0.09572  0.15139
[ bonds ]
27318 27320     1  0.09572  0.15139
[ bonds ]
27321 27322     1  0.09572  0.15139
[ bonds ]
27321 27323     1  0.09572  0.15139
[ bonds ]
27324 27325     1  0.09572  0.15139
[ bonds ]
27324 27326     1  0.09572  0.15139
[ bonds ]
27327 27328     1  0.09572  0.15139
[ bonds ]
27327 27329     1  0.09572  0.15139
[ bonds ]
27330 27331     1  0.09572  0.15139
[ bonds ]
27330 27332     1  0.09572  0.15139
[ bonds ]
27333 27334     1  0.09572  0.15139
[ bonds ]
27333 27335     1  0.09572  0.15139
[ bonds ]
27336 27337     1  0.09572  0.15139
[ bonds ]
27336 27338     1  0.09572  0.15139
[ bonds ]
27339 27340     1  0.09572  0.15139
[ bonds ]
27339 27341     1  0.09572  0.15139
[ bonds ]
27342 27343     1  0.09572  0.15139
[ bonds ]
27342 27344     1  0.09572  0.15139
[ bonds ]
27345 27346     1  0.09572  0.15139
[ bonds ]
27345 27347     1  0.09572  0.15139
[ bonds ]
27348 27349     1  0.09572  0.15139
[ bonds ]
27348 27350     1  0.09572  0.15139
[ bonds ]
27351 27352     1  0.09572  0.15139
[ bonds ]
27351 27353     1  0.09572  0.15139
[ bonds ]
27354 27355     1  0.09572  0.15139
[ bonds ]
27354 27356     1  0.09572  0.15139
[ bonds ]
27357 27358     1  0.09572  0.15139
[ bonds ]
27357 27359     1  0.09572  0.15139
[ bonds ]
27360 27361     1  0.09572  0.15139
[ bonds ]
27360 27362     1  0.09572  0.15139
[ bonds ]
27363 27364     1  0.09572  0.15139
[ bonds ]
27363 27365     1  0.09572  0.15139
[ bonds ]
27366 27367     1  0.09572  0.15139
[ bonds ]
27366 27368     1  0.09572  0.15139
[ bonds ]
27369 27370     1  0.09572  0.15139
[ bonds ]
27369 27371     1  0.09572  0.15139
[ bonds ]
27372 27373     1  0.09572  0.15139
[ bonds ]
27372 27374     1  0.09572  0.15139
[ bonds ]
27375 27376     1  0.09572  0.15139
[ bonds ]
27375 27377     1  0.09572  0.15139
[ bonds ]
27378 27379     1  0.09572  0.15139
[ bonds ]
27378 27380     1  0.09572  0.15139
[ bonds ]
27381 27382     1  0.09572  0.15139
[ bonds ]
27381 27383     1  0.09572  0.15139
[ bonds ]
27384 27385     1  0.09572  0.15139
[ bonds ]
27384 27386     1  0.09572  0.15139
[ bonds ]
27387 27388     1  0.09572  0.15139
[ bonds ]
27387 27389     1  0.09572  0.15139
[ bonds ]
27390 27391     1  0.09572  0.15139
[ bonds ]
27390 27392     1  0.09572  0.15139
[ bonds ]
27393 27394     1  0.09572  0.15139
[ bonds ]
27393 27395     1  0.09572  0.15139
[ bonds ]
27396 27397     1  0.09572  0.15139
[ bonds ]
27396 27398     1  0.09572  0.15139
[ bonds ]
27399 27400     1  0.09572  0.15139
[ bonds ]
27399 27401     1  0.09572  0.15139
[ bonds ]
27402 27403     1  0.09572  0.15139
[ bonds ]
27402 27404     1  0.09572  0.15139
[ bonds ]
27405 27406     1  0.09572  0.15139
[ bonds ]
27405 27407     1  0.09572  0.15139
[ bonds ]
27408 27409     1  0.09572  0.15139
[ bonds ]
27408 27410     1  0.09572  0.15139
[ bonds ]
27411 27412     1  0.09572  0.15139
[ bonds ]
27411 27413     1  0.09572  0.15139
[ bonds ]
27414 27415     1  0.09572  0.15139
[ bonds ]
27414 27416     1  0.09572  0.15139
[ bonds ]
27417 27418     1  0.09572  0.15139
[ bonds ]
27417 27419     1  0.09572  0.15139
[ bonds ]
27420 27421     1  0.09572  0.15139
[ bonds ]
27420 27422     1  0.09572  0.15139
[ bonds ]
27423 27424     1  0.09572  0.15139
[ bonds ]
27423 27425     1  0.09572  0.15139
[ bonds ]
27426 27427     1  0.09572  0.15139
[ bonds ]
27426 27428     1  0.09572  0.15139
[ bonds ]
27429 27430     1  0.09572  0.15139
[ bonds ]
27429 27431     1  0.09572  0.15139
[ bonds ]
27432 27433     1  0.09572  0.15139
[ bonds ]
27432 27434     1  0.09572  0.15139
[ bonds ]
27435 27436     1  0.09572  0.15139
[ bonds ]
27435 27437     1  0.09572  0.15139
[ bonds ]
27438 27439     1  0.09572  0.15139
[ bonds ]
27438 27440     1  0.09572  0.15139
[ bonds ]
27441 27442     1  0.09572  0.15139
[ bonds ]
27441 27443     1  0.09572  0.15139
[ bonds ]
27444 27445     1  0.09572  0.15139
[ bonds ]
27444 27446     1  0.09572  0.15139
[ bonds ]
27447 27448     1  0.09572  0.15139
[ bonds ]
27447 27449     1  0.09572  0.15139
[ bonds ]
27450 27451     1  0.09572  0.15139
[ bonds ]
27450 27452     1  0.09572  0.15139
[ bonds ]
27453 27454     1  0.09572  0.15139
[ bonds ]
27453 27455     1  0.09572  0.15139
[ bonds ]
27456 27457     1  0.09572  0.15139
[ bonds ]
27456 27458     1  0.09572  0.15139
[ bonds ]
27459 27460     1  0.09572  0.15139
[ bonds ]
27459 27461     1  0.09572  0.15139
[ bonds ]
27462 27463     1  0.09572  0.15139
[ bonds ]
27462 27464     1  0.09572  0.15139
[ bonds ]
27465 27466     1  0.09572  0.15139
[ bonds ]
27465 27467     1  0.09572  0.15139
[ bonds ]
27468 27469     1  0.09572  0.15139
[ bonds ]
27468 27470     1  0.09572  0.15139
[ bonds ]
27471 27472     1  0.09572  0.15139
[ bonds ]
27471 27473     1  0.09572  0.15139
[ bonds ]
27474 27475     1  0.09572  0.15139
[ bonds ]
27474 27476     1  0.09572  0.15139
[ bonds ]
27477 27478     1  0.09572  0.15139
[ bonds ]
27477 27479     1  0.09572  0.15139
[ bonds ]
27480 27481     1  0.09572  0.15139
[ bonds ]
27480 27482     1  0.09572  0.15139
[ bonds ]
27483 27484     1  0.09572  0.15139
[ bonds ]
27483 27485     1  0.09572  0.15139
[ bonds ]
27486 27487     1  0.09572  0.15139
[ bonds ]
27486 27488     1  0.09572  0.15139
[ bonds ]
27489 27490     1  0.09572  0.15139
[ bonds ]
27489 27491     1  0.09572  0.15139
[ bonds ]
27492 27493     1  0.09572  0.15139
[ bonds ]
27492 27494     1  0.09572  0.15139
[ bonds ]
27495 27496     1  0.09572  0.15139
[ bonds ]
27495 27497     1  0.09572  0.15139
[ bonds ]
27498 27499     1  0.09572  0.15139
[ bonds ]
27498 27500     1  0.09572  0.15139
[ bonds ]
27501 27502     1  0.09572  0.15139
[ bonds ]
27501 27503     1  0.09572  0.15139
[ bonds ]
27504 27505     1  0.09572  0.15139
[ bonds ]
27504 27506     1  0.09572  0.15139
[ bonds ]
27507 27508     1  0.09572  0.15139
[ bonds ]
27507 27509     1  0.09572  0.15139
[ bonds ]
27510 27511     1  0.09572  0.15139
[ bonds ]
27510 27512     1  0.09572  0.15139
[ bonds ]
27513 27514     1  0.09572  0.15139
[ bonds ]
27513 27515     1  0.09572  0.15139
[ bonds ]
27516 27517     1  0.09572  0.15139
[ bonds ]
27516 27518     1  0.09572  0.15139
[ bonds ]
27519 27520     1  0.09572  0.15139
[ bonds ]
27519 27521     1  0.09572  0.15139
[ bonds ]
27522 27523     1  0.09572  0.15139
[ bonds ]
27522 27524     1  0.09572  0.15139
[ bonds ]
27525 27526     1  0.09572  0.15139
[ bonds ]
27525 27527     1  0.09572  0.15139
[ bonds ]
27528 27529     1  0.09572  0.15139
[ bonds ]
27528 27530     1  0.09572  0.15139
[ bonds ]
27531 27532     1  0.09572  0.15139
[ bonds ]
27531 27533     1  0.09572  0.15139
[ bonds ]
27534 27535     1  0.09572  0.15139
[ bonds ]
27534 27536     1  0.09572  0.15139
[ bonds ]
27537 27538     1  0.09572  0.15139
[ bonds ]
27537 27539     1  0.09572  0.15139
[ bonds ]
27540 27541     1  0.09572  0.15139
[ bonds ]
27540 27542     1  0.09572  0.15139
[ bonds ]
27543 27544     1  0.09572  0.15139
[ bonds ]
27543 27545     1  0.09572  0.15139
[ bonds ]
27546 27547     1  0.09572  0.15139
[ bonds ]
27546 27548     1  0.09572  0.15139
[ bonds ]
27549 27550     1  0.09572  0.15139
[ bonds ]
27549 27551     1  0.09572  0.15139
[ bonds ]
27552 27553     1  0.09572  0.15139
[ bonds ]
27552 27554     1  0.09572  0.15139
[ bonds ]
27555 27556     1  0.09572  0.15139
[ bonds ]
27555 27557     1  0.09572  0.15139
[ bonds ]
27558 27559     1  0.09572  0.15139
[ bonds ]
27558 27560     1  0.09572  0.15139
[ bonds ]
27561 27562     1  0.09572  0.15139
[ bonds ]
27561 27563     1  0.09572  0.15139
[ bonds ]
27564 27565     1  0.09572  0.15139
[ bonds ]
27564 27566     1  0.09572  0.15139
[ bonds ]
27567 27568     1  0.09572  0.15139
[ bonds ]
27567 27569     1  0.09572  0.15139
[ bonds ]
27570 27571     1  0.09572  0.15139
[ bonds ]
27570 27572     1  0.09572  0.15139
[ bonds ]
27573 27574     1  0.09572  0.15139
[ bonds ]
27573 27575     1  0.09572  0.15139
[ bonds ]
27576 27577     1  0.09572  0.15139
[ bonds ]
27576 27578     1  0.09572  0.15139
[ bonds ]
27579 27580     1  0.09572  0.15139
[ bonds ]
27579 27581     1  0.09572  0.15139
[ bonds ]
27582 27583     1  0.09572  0.15139
[ bonds ]
27582 27584     1  0.09572  0.15139
[ bonds ]
27585 27586     1  0.09572  0.15139
[ bonds ]
27585 27587     1  0.09572  0.15139
[ bonds ]
27588 27589     1  0.09572  0.15139
[ bonds ]
27588 27590     1  0.09572  0.15139
[ bonds ]
27591 27592     1  0.09572  0.15139
[ bonds ]
27591 27593     1  0.09572  0.15139
[ bonds ]
27594 27595     1  0.09572  0.15139
[ bonds ]
27594 27596     1  0.09572  0.15139
[ bonds ]
27597 27598     1  0.09572  0.15139
[ bonds ]
27597 27599     1  0.09572  0.15139
[ bonds ]
27600 27601     1  0.09572  0.15139
[ bonds ]
27600 27602     1  0.09572  0.15139
[ bonds ]
27603 27604     1  0.09572  0.15139
[ bonds ]
27603 27605     1  0.09572  0.15139
[ bonds ]
27606 27607     1  0.09572  0.15139
[ bonds ]
27606 27608     1  0.09572  0.15139
[ bonds ]
27609 27610     1  0.09572  0.15139
[ bonds ]
27609 27611     1  0.09572  0.15139
[ bonds ]
27612 27613     1  0.09572  0.15139
[ bonds ]
27612 27614     1  0.09572  0.15139
[ bonds ]
27615 27616     1  0.09572  0.15139
[ bonds ]
27615 27617     1  0.09572  0.15139
[ bonds ]
27618 27619     1  0.09572  0.15139
[ bonds ]
27618 27620     1  0.09572  0.15139
[ bonds ]
27621 27622     1  0.09572  0.15139
[ bonds ]
27621 27623     1  0.09572  0.15139
[ bonds ]
27624 27625     1  0.09572  0.15139
[ bonds ]
27624 27626     1  0.09572  0.15139
[ bonds ]
27627 27628     1  0.09572  0.15139
[ bonds ]
27627 27629     1  0.09572  0.15139
[ bonds ]
27630 27631     1  0.09572  0.15139
[ bonds ]
27630 27632     1  0.09572  0.15139
[ bonds ]
27633 27634     1  0.09572  0.15139
[ bonds ]
27633 27635     1  0.09572  0.15139
[ bonds ]
27636 27637     1  0.09572  0.15139
[ bonds ]
27636 27638     1  0.09572  0.15139
[ bonds ]
27639 27640     1  0.09572  0.15139
[ bonds ]
27639 27641     1  0.09572  0.15139
[ bonds ]
27642 27643     1  0.09572  0.15139
[ bonds ]
27642 27644     1  0.09572  0.15139
[ bonds ]
27645 27646     1  0.09572  0.15139
[ bonds ]
27645 27647     1  0.09572  0.15139
[ bonds ]
27648 27649     1  0.09572  0.15139
[ bonds ]
27648 27650     1  0.09572  0.15139
[ bonds ]
27651 27652     1  0.09572  0.15139
[ bonds ]
27651 27653     1  0.09572  0.15139
[ bonds ]
27654 27655     1  0.09572  0.15139
[ bonds ]
27654 27656     1  0.09572  0.15139
[ bonds ]
27657 27658     1  0.09572  0.15139
[ bonds ]
27657 27659     1  0.09572  0.15139
[ bonds ]
27660 27661     1  0.09572  0.15139
[ bonds ]
27660 27662     1  0.09572  0.15139
[ bonds ]
27663 27664     1  0.09572  0.15139
[ bonds ]
27663 27665     1  0.09572  0.15139
[ bonds ]
27666 27667     1  0.09572  0.15139
[ bonds ]
27666 27668     1  0.09572  0.15139
[ bonds ]
27669 27670     1  0.09572  0.15139
[ bonds ]
27669 27671     1  0.09572  0.15139
[ bonds ]
27672 27673     1  0.09572  0.15139
[ bonds ]
27672 27674     1  0.09572  0.15139
[ bonds ]
27675 27676     1  0.09572  0.15139
[ bonds ]
27675 27677     1  0.09572  0.15139
[ bonds ]
27678 27679     1  0.09572  0.15139
[ bonds ]
27678 27680     1  0.09572  0.15139
[ bonds ]
27681 27682     1  0.09572  0.15139
[ bonds ]
27681 27683     1  0.09572  0.15139
[ bonds ]
27684 27685     1  0.09572  0.15139
[ bonds ]
27684 27686     1  0.09572  0.15139
[ bonds ]
27687 27688     1  0.09572  0.15139
[ bonds ]
27687 27689     1  0.09572  0.15139
[ bonds ]
27690 27691     1  0.09572  0.15139
[ bonds ]
27690 27692     1  0.09572  0.15139
[ bonds ]
27693 27694     1  0.09572  0.15139
[ bonds ]
27693 27695     1  0.09572  0.15139
[ bonds ]
27696 27697     1  0.09572  0.15139
[ bonds ]
27696 27698     1  0.09572  0.15139
[ bonds ]
27699 27700     1  0.09572  0.15139
[ bonds ]
27699 27701     1  0.09572  0.15139
[ bonds ]
27702 27703     1  0.09572  0.15139
[ bonds ]
27702 27704     1  0.09572  0.15139
[ bonds ]
27705 27706     1  0.09572  0.15139
[ bonds ]
27705 27707     1  0.09572  0.15139
[ bonds ]
27708 27709     1  0.09572  0.15139
[ bonds ]
27708 27710     1  0.09572  0.15139
[ bonds ]
27711 27712     1  0.09572  0.15139
[ bonds ]
27711 27713     1  0.09572  0.15139
[ bonds ]
27714 27715     1  0.09572  0.15139
[ bonds ]
27714 27716     1  0.09572  0.15139
[ bonds ]
27717 27718     1  0.09572  0.15139
[ bonds ]
27717 27719     1  0.09572  0.15139
[ bonds ]
27720 27721     1  0.09572  0.15139
[ bonds ]
27720 27722     1  0.09572  0.15139
[ bonds ]
27723 27724     1  0.09572  0.15139
[ bonds ]
27723 27725     1  0.09572  0.15139
[ bonds ]
27726 27727     1  0.09572  0.15139
[ bonds ]
27726 27728     1  0.09572  0.15139
[ bonds ]
27729 27730     1  0.09572  0.15139
[ bonds ]
27729 27731     1  0.09572  0.15139
[ bonds ]
27732 27733     1  0.09572  0.15139
[ bonds ]
27732 27734     1  0.09572  0.15139
[ bonds ]
27735 27736     1  0.09572  0.15139
[ bonds ]
27735 27737     1  0.09572  0.15139
[ bonds ]
27738 27739     1  0.09572  0.15139
[ bonds ]
27738 27740     1  0.09572  0.15139
[ bonds ]
27741 27742     1  0.09572  0.15139
[ bonds ]
27741 27743     1  0.09572  0.15139
[ bonds ]
27744 27745     1  0.09572  0.15139
[ bonds ]
27744 27746     1  0.09572  0.15139
[ bonds ]
27747 27748     1  0.09572  0.15139
[ bonds ]
27747 27749     1  0.09572  0.15139
[ bonds ]
27750 27751     1  0.09572  0.15139
[ bonds ]
27750 27752     1  0.09572  0.15139
[ bonds ]
27753 27754     1  0.09572  0.15139
[ bonds ]
27753 27755     1  0.09572  0.15139
[ bonds ]
27756 27757     1  0.09572  0.15139
[ bonds ]
27756 27758     1  0.09572  0.15139
[ bonds ]
27759 27760     1  0.09572  0.15139
[ bonds ]
27759 27761     1  0.09572  0.15139
[ bonds ]
27762 27763     1  0.09572  0.15139
[ bonds ]
27762 27764     1  0.09572  0.15139
[ bonds ]
27765 27766     1  0.09572  0.15139
[ bonds ]
27765 27767     1  0.09572  0.15139
[ bonds ]
27768 27769     1  0.09572  0.15139
[ bonds ]
27768 27770     1  0.09572  0.15139
[ bonds ]
27771 27772     1  0.09572  0.15139
[ bonds ]
27771 27773     1  0.09572  0.15139
[ bonds ]
27774 27775     1  0.09572  0.15139
[ bonds ]
27774 27776     1  0.09572  0.15139
[ bonds ]
27777 27778     1  0.09572  0.15139
[ bonds ]
27777 27779     1  0.09572  0.15139
[ bonds ]
27780 27781     1  0.09572  0.15139
[ bonds ]
27780 27782     1  0.09572  0.15139
[ bonds ]
27783 27784     1  0.09572  0.15139
[ bonds ]
27783 27785     1  0.09572  0.15139
[ bonds ]
27786 27787     1  0.09572  0.15139
[ bonds ]
27786 27788     1  0.09572  0.15139
[ bonds ]
27789 27790     1  0.09572  0.15139
[ bonds ]
27789 27791     1  0.09572  0.15139
[ bonds ]
27792 27793     1  0.09572  0.15139
[ bonds ]
27792 27794     1  0.09572  0.15139
[ bonds ]
27795 27796     1  0.09572  0.15139
[ bonds ]
27795 27797     1  0.09572  0.15139
[ bonds ]
27798 27799     1  0.09572  0.15139
[ bonds ]
27798 27800     1  0.09572  0.15139
[ bonds ]
27801 27802     1  0.09572  0.15139
[ bonds ]
27801 27803     1  0.09572  0.15139
[ bonds ]
27804 27805     1  0.09572  0.15139
[ bonds ]
27804 27806     1  0.09572  0.15139
[ bonds ]
27807 27808     1  0.09572  0.15139
[ bonds ]
27807 27809     1  0.09572  0.15139
[ bonds ]
27810 27811     1  0.09572  0.15139
[ bonds ]
27810 27812     1  0.09572  0.15139
[ bonds ]
27813 27814     1  0.09572  0.15139
[ bonds ]
27813 27815     1  0.09572  0.15139
[ bonds ]
27816 27817     1  0.09572  0.15139
[ bonds ]
27816 27818     1  0.09572  0.15139
[ bonds ]
27819 27820     1  0.09572  0.15139
[ bonds ]
27819 27821     1  0.09572  0.15139
[ bonds ]
27822 27823     1  0.09572  0.15139
[ bonds ]
27822 27824     1  0.09572  0.15139
[ bonds ]
27825 27826     1  0.09572  0.15139
[ bonds ]
27825 27827     1  0.09572  0.15139
[ bonds ]
27828 27829     1  0.09572  0.15139
[ bonds ]
27828 27830     1  0.09572  0.15139
[ bonds ]
27831 27832     1  0.09572  0.15139
[ bonds ]
27831 27833     1  0.09572  0.15139
[ bonds ]
27834 27835     1  0.09572  0.15139
[ bonds ]
27834 27836     1  0.09572  0.15139
[ bonds ]
27837 27838     1  0.09572  0.15139
[ bonds ]
27837 27839     1  0.09572  0.15139
[ bonds ]
27840 27841     1  0.09572  0.15139
[ bonds ]
27840 27842     1  0.09572  0.15139
[ bonds ]
27843 27844     1  0.09572  0.15139
[ bonds ]
27843 27845     1  0.09572  0.15139
[ bonds ]
27846 27847     1  0.09572  0.15139
[ bonds ]
27846 27848     1  0.09572  0.15139
[ bonds ]
27849 27850     1  0.09572  0.15139
[ bonds ]
27849 27851     1  0.09572  0.15139
[ bonds ]
27852 27853     1  0.09572  0.15139
[ bonds ]
27852 27854     1  0.09572  0.15139
[ bonds ]
27855 27856     1  0.09572  0.15139
[ bonds ]
27855 27857     1  0.09572  0.15139
[ bonds ]
27858 27859     1  0.09572  0.15139
[ bonds ]
27858 27860     1  0.09572  0.15139
[ bonds ]
27861 27862     1  0.09572  0.15139
[ bonds ]
27861 27863     1  0.09572  0.15139
[ bonds ]
27864 27865     1  0.09572  0.15139
[ bonds ]
27864 27866     1  0.09572  0.15139
[ bonds ]
27867 27868     1  0.09572  0.15139
[ bonds ]
27867 27869     1  0.09572  0.15139
[ bonds ]
27870 27871     1  0.09572  0.15139
[ bonds ]
27870 27872     1  0.09572  0.15139
[ bonds ]
27873 27874     1  0.09572  0.15139
[ bonds ]
27873 27875     1  0.09572  0.15139
[ bonds ]
27876 27877     1  0.09572  0.15139
[ bonds ]
27876 27878     1  0.09572  0.15139
[ bonds ]
27879 27880     1  0.09572  0.15139
[ bonds ]
27879 27881     1  0.09572  0.15139
[ bonds ]
27882 27883     1  0.09572  0.15139
[ bonds ]
27882 27884     1  0.09572  0.15139
[ bonds ]
27885 27886     1  0.09572  0.15139
[ bonds ]
27885 27887     1  0.09572  0.15139
[ bonds ]
27888 27889     1  0.09572  0.15139
[ bonds ]
27888 27890     1  0.09572  0.15139
[ bonds ]
27891 27892     1  0.09572  0.15139
[ bonds ]
27891 27893     1  0.09572  0.15139
[ bonds ]
27894 27895     1  0.09572  0.15139
[ bonds ]
27894 27896     1  0.09572  0.15139
[ bonds ]
27897 27898     1  0.09572  0.15139
[ bonds ]
27897 27899     1  0.09572  0.15139
[ bonds ]
27900 27901     1  0.09572  0.15139
[ bonds ]
27900 27902     1  0.09572  0.15139
[ bonds ]
27903 27904     1  0.09572  0.15139
[ bonds ]
27903 27905     1  0.09572  0.15139
[ bonds ]
27906 27907     1  0.09572  0.15139
[ bonds ]
27906 27908     1  0.09572  0.15139
[ bonds ]
27909 27910     1  0.09572  0.15139
[ bonds ]
27909 27911     1  0.09572  0.15139
[ bonds ]
27912 27913     1  0.09572  0.15139
[ bonds ]
27912 27914     1  0.09572  0.15139
[ bonds ]
27915 27916     1  0.09572  0.15139
[ bonds ]
27915 27917     1  0.09572  0.15139
[ bonds ]
27918 27919     1  0.09572  0.15139
[ bonds ]
27918 27920     1  0.09572  0.15139
[ bonds ]
27921 27922     1  0.09572  0.15139
[ bonds ]
27921 27923     1  0.09572  0.15139
[ bonds ]
27924 27925     1  0.09572  0.15139
[ bonds ]
27924 27926     1  0.09572  0.15139
[ bonds ]
27927 27928     1  0.09572  0.15139
[ bonds ]
27927 27929     1  0.09572  0.15139
[ bonds ]
27930 27931     1  0.09572  0.15139
[ bonds ]
27930 27932     1  0.09572  0.15139
[ bonds ]
27933 27934     1  0.09572  0.15139
[ bonds ]
27933 27935     1  0.09572  0.15139
[ bonds ]
27936 27937     1  0.09572  0.15139
[ bonds ]
27936 27938     1  0.09572  0.15139
[ bonds ]
27939 27940     1  0.09572  0.15139
[ bonds ]
27939 27941     1  0.09572  0.15139
[ bonds ]
27942 27943     1  0.09572  0.15139
[ bonds ]
27942 27944     1  0.09572  0.15139
[ bonds ]
27945 27946     1  0.09572  0.15139
[ bonds ]
27945 27947     1  0.09572  0.15139
[ bonds ]
27948 27949     1  0.09572  0.15139
[ bonds ]
27948 27950     1  0.09572  0.15139
[ bonds ]
27951 27952     1  0.09572  0.15139
[ bonds ]
27951 27953     1  0.09572  0.15139
[ bonds ]
27954 27955     1  0.09572  0.15139
[ bonds ]
27954 27956     1  0.09572  0.15139
[ bonds ]
27957 27958     1  0.09572  0.15139
[ bonds ]
27957 27959     1  0.09572  0.15139
[ bonds ]
27960 27961     1  0.09572  0.15139
[ bonds ]
27960 27962     1  0.09572  0.15139
[ bonds ]
27963 27964     1  0.09572  0.15139
[ bonds ]
27963 27965     1  0.09572  0.15139
[ bonds ]
27966 27967     1  0.09572  0.15139
[ bonds ]
27966 27968     1  0.09572  0.15139
[ bonds ]
27969 27970     1  0.09572  0.15139
[ bonds ]
27969 27971     1  0.09572  0.15139
[ bonds ]
27972 27973     1  0.09572  0.15139
[ bonds ]
27972 27974     1  0.09572  0.15139
[ bonds ]
27975 27976     1  0.09572  0.15139
[ bonds ]
27975 27977     1  0.09572  0.15139
[ bonds ]
27978 27979     1  0.09572  0.15139
[ bonds ]
27978 27980     1  0.09572  0.15139
[ bonds ]
27981 27982     1  0.09572  0.15139
[ bonds ]
27981 27983     1  0.09572  0.15139
[ bonds ]
27984 27985     1  0.09572  0.15139
[ bonds ]
27984 27986     1  0.09572  0.15139
[ bonds ]
27987 27988     1  0.09572  0.15139
[ bonds ]
27987 27989     1  0.09572  0.15139
[ bonds ]
27990 27991     1  0.09572  0.15139
[ bonds ]
27990 27992     1  0.09572  0.15139
[ bonds ]
27993 27994     1  0.09572  0.15139
[ bonds ]
27993 27995     1  0.09572  0.15139
[ bonds ]
27996 27997     1  0.09572  0.15139
[ bonds ]
27996 27998     1  0.09572  0.15139
[ bonds ]
27999 28000     1  0.09572  0.15139
[ bonds ]
27999 28001     1  0.09572  0.15139
[ bonds ]
28002 28003     1  0.09572  0.15139
[ bonds ]
28002 28004     1  0.09572  0.15139
[ bonds ]
28005 28006     1  0.09572  0.15139
[ bonds ]
28005 28007     1  0.09572  0.15139
[ bonds ]
28008 28009     1  0.09572  0.15139
[ bonds ]
28008 28010     1  0.09572  0.15139
[ bonds ]
28011 28012     1  0.09572  0.15139
[ bonds ]
28011 28013     1  0.09572  0.15139
[ bonds ]
28014 28015     1  0.09572  0.15139
[ bonds ]
28014 28016     1  0.09572  0.15139
[ bonds ]
28017 28018     1  0.09572  0.15139
[ bonds ]
28017 28019     1  0.09572  0.15139
[ bonds ]
28020 28021     1  0.09572  0.15139
[ bonds ]
28020 28022     1  0.09572  0.15139
[ bonds ]
28023 28024     1  0.09572  0.15139
[ bonds ]
28023 28025     1  0.09572  0.15139
[ bonds ]
28026 28027     1  0.09572  0.15139
[ bonds ]
28026 28028     1  0.09572  0.15139
[ bonds ]
28029 28030     1  0.09572  0.15139
[ bonds ]
28029 28031     1  0.09572  0.15139
[ bonds ]
28032 28033     1  0.09572  0.15139
[ bonds ]
28032 28034     1  0.09572  0.15139
[ bonds ]
28035 28036     1  0.09572  0.15139
[ bonds ]
28035 28037     1  0.09572  0.15139
[ bonds ]
28038 28039     1  0.09572  0.15139
[ bonds ]
28038 28040     1  0.09572  0.15139
[ bonds ]
28041 28042     1  0.09572  0.15139
[ bonds ]
28041 28043     1  0.09572  0.15139
[ bonds ]
28044 28045     1  0.09572  0.15139
[ bonds ]
28044 28046     1  0.09572  0.15139
[ bonds ]
28047 28048     1  0.09572  0.15139
[ bonds ]
28047 28049     1  0.09572  0.15139
[ bonds ]
28050 28051     1  0.09572  0.15139
[ bonds ]
28050 28052     1  0.09572  0.15139
[ bonds ]
28053 28054     1  0.09572  0.15139
[ bonds ]
28053 28055     1  0.09572  0.15139
[ bonds ]
28056 28057     1  0.09572  0.15139
[ bonds ]
28056 28058     1  0.09572  0.15139
[ bonds ]
28059 28060     1  0.09572  0.15139
[ bonds ]
28059 28061     1  0.09572  0.15139
[ bonds ]
28062 28063     1  0.09572  0.15139
[ bonds ]
28062 28064     1  0.09572  0.15139
[ bonds ]
28065 28066     1  0.09572  0.15139
[ bonds ]
28065 28067     1  0.09572  0.15139
[ bonds ]
28068 28069     1  0.09572  0.15139
[ bonds ]
28068 28070     1  0.09572  0.15139
[ bonds ]
28071 28072     1  0.09572  0.15139
[ bonds ]
28071 28073     1  0.09572  0.15139
[ bonds ]
28074 28075     1  0.09572  0.15139
[ bonds ]
28074 28076     1  0.09572  0.15139
[ bonds ]
28077 28078     1  0.09572  0.15139
[ bonds ]
28077 28079     1  0.09572  0.15139
[ bonds ]
28080 28081     1  0.09572  0.15139
[ bonds ]
28080 28082     1  0.09572  0.15139
[ bonds ]
28083 28084     1  0.09572  0.15139
[ bonds ]
28083 28085     1  0.09572  0.15139
[ bonds ]
28086 28087     1  0.09572  0.15139
[ bonds ]
28086 28088     1  0.09572  0.15139
[ bonds ]
28089 28090     1  0.09572  0.15139
[ bonds ]
28089 28091     1  0.09572  0.15139
[ bonds ]
28092 28093     1  0.09572  0.15139
[ bonds ]
28092 28094     1  0.09572  0.15139
[ bonds ]
28095 28096     1  0.09572  0.15139
[ bonds ]
28095 28097     1  0.09572  0.15139
[ bonds ]
28098 28099     1  0.09572  0.15139
[ bonds ]
28098 28100     1  0.09572  0.15139
[ bonds ]
28101 28102     1  0.09572  0.15139
[ bonds ]
28101 28103     1  0.09572  0.15139
[ bonds ]
28104 28105     1  0.09572  0.15139
[ bonds ]
28104 28106     1  0.09572  0.15139
[ bonds ]
28107 28108     1  0.09572  0.15139
[ bonds ]
28107 28109     1  0.09572  0.15139
[ bonds ]
28110 28111     1  0.09572  0.15139
[ bonds ]
28110 28112     1  0.09572  0.15139
[ bonds ]
28113 28114     1  0.09572  0.15139
[ bonds ]
28113 28115     1  0.09572  0.15139
[ bonds ]
28116 28117     1  0.09572  0.15139
[ bonds ]
28116 28118     1  0.09572  0.15139
[ bonds ]
28119 28120     1  0.09572  0.15139
[ bonds ]
28119 28121     1  0.09572  0.15139
[ bonds ]
28122 28123     1  0.09572  0.15139
[ bonds ]
28122 28124     1  0.09572  0.15139
[ bonds ]
28125 28126     1  0.09572  0.15139
[ bonds ]
28125 28127     1  0.09572  0.15139
[ bonds ]
28128 28129     1  0.09572  0.15139
[ bonds ]
28128 28130     1  0.09572  0.15139
[ bonds ]
28131 28132     1  0.09572  0.15139
[ bonds ]
28131 28133     1  0.09572  0.15139
[ bonds ]
28134 28135     1  0.09572  0.15139
[ bonds ]
28134 28136     1  0.09572  0.15139
[ bonds ]
28137 28138     1  0.09572  0.15139
[ bonds ]
28137 28139     1  0.09572  0.15139
[ bonds ]
28140 28141     1  0.09572  0.15139
[ bonds ]
28140 28142     1  0.09572  0.15139
[ bonds ]
28143 28144     1  0.09572  0.15139
[ bonds ]
28143 28145     1  0.09572  0.15139
[ bonds ]
28146 28147     1  0.09572  0.15139
[ bonds ]
28146 28148     1  0.09572  0.15139
[ bonds ]
28149 28150     1  0.09572  0.15139
[ bonds ]
28149 28151     1  0.09572  0.15139
[ bonds ]
28152 28153     1  0.09572  0.15139
[ bonds ]
28152 28154     1  0.09572  0.15139
[ bonds ]
28155 28156     1  0.09572  0.15139
[ bonds ]
28155 28157     1  0.09572  0.15139
[ bonds ]
28158 28159     1  0.09572  0.15139
[ bonds ]
28158 28160     1  0.09572  0.15139
[ bonds ]
28161 28162     1  0.09572  0.15139
[ bonds ]
28161 28163     1  0.09572  0.15139
[ bonds ]
28164 28165     1  0.09572  0.15139
[ bonds ]
28164 28166     1  0.09572  0.15139
[ bonds ]
28167 28168     1  0.09572  0.15139
[ bonds ]
28167 28169     1  0.09572  0.15139
[ bonds ]
28170 28171     1  0.09572  0.15139
[ bonds ]
28170 28172     1  0.09572  0.15139
[ bonds ]
28173 28174     1  0.09572  0.15139
[ bonds ]
28173 28175     1  0.09572  0.15139
[ bonds ]
28176 28177     1  0.09572  0.15139
[ bonds ]
28176 28178     1  0.09572  0.15139
[ bonds ]
28179 28180     1  0.09572  0.15139
[ bonds ]
28179 28181     1  0.09572  0.15139
[ bonds ]
28182 28183     1  0.09572  0.15139
[ bonds ]
28182 28184     1  0.09572  0.15139
[ bonds ]
28185 28186     1  0.09572  0.15139
[ bonds ]
28185 28187     1  0.09572  0.15139
[ bonds ]
28188 28189     1  0.09572  0.15139
[ bonds ]
28188 28190     1  0.09572  0.15139
[ bonds ]
28191 28192     1  0.09572  0.15139
[ bonds ]
28191 28193     1  0.09572  0.15139
[ bonds ]
28194 28195     1  0.09572  0.15139
[ bonds ]
28194 28196     1  0.09572  0.15139
[ bonds ]
28197 28198     1  0.09572  0.15139
[ bonds ]
28197 28199     1  0.09572  0.15139
[ bonds ]
28200 28201     1  0.09572  0.15139
[ bonds ]
28200 28202     1  0.09572  0.15139
[ bonds ]
28203 28204     1  0.09572  0.15139
[ bonds ]
28203 28205     1  0.09572  0.15139
[ bonds ]
28206 28207     1  0.09572  0.15139
[ bonds ]
28206 28208     1  0.09572  0.15139
[ bonds ]
28209 28210     1  0.09572  0.15139
[ bonds ]
28209 28211     1  0.09572  0.15139
[ bonds ]
28212 28213     1  0.09572  0.15139
[ bonds ]
28212 28214     1  0.09572  0.15139
[ bonds ]
28215 28216     1  0.09572  0.15139
[ bonds ]
28215 28217     1  0.09572  0.15139
[ bonds ]
28218 28219     1  0.09572  0.15139
[ bonds ]
28218 28220     1  0.09572  0.15139
[ bonds ]
28221 28222     1  0.09572  0.15139
[ bonds ]
28221 28223     1  0.09572  0.15139
[ bonds ]
28224 28225     1  0.09572  0.15139
[ bonds ]
28224 28226     1  0.09572  0.15139
[ bonds ]
28227 28228     1  0.09572  0.15139
[ bonds ]
28227 28229     1  0.09572  0.15139
[ bonds ]
28230 28231     1  0.09572  0.15139
[ bonds ]
28230 28232     1  0.09572  0.15139
[ bonds ]
28233 28234     1  0.09572  0.15139
[ bonds ]
28233 28235     1  0.09572  0.15139
[ bonds ]
28236 28237     1  0.09572  0.15139
[ bonds ]
28236 28238     1  0.09572  0.15139
[ bonds ]
28239 28240     1  0.09572  0.15139
[ bonds ]
28239 28241     1  0.09572  0.15139
[ bonds ]
28242 28243     1  0.09572  0.15139
[ bonds ]
28242 28244     1  0.09572  0.15139
[ bonds ]
28245 28246     1  0.09572  0.15139
[ bonds ]
28245 28247     1  0.09572  0.15139
[ bonds ]
28248 28249     1  0.09572  0.15139
[ bonds ]
28248 28250     1  0.09572  0.15139
[ bonds ]
28251 28252     1  0.09572  0.15139
[ bonds ]
28251 28253     1  0.09572  0.15139
[ bonds ]
28254 28255     1  0.09572  0.15139
[ bonds ]
28254 28256     1  0.09572  0.15139
[ bonds ]
28257 28258     1  0.09572  0.15139
[ bonds ]
28257 28259     1  0.09572  0.15139
[ bonds ]
28260 28261     1  0.09572  0.15139
[ bonds ]
28260 28262     1  0.09572  0.15139
[ bonds ]
28263 28264     1  0.09572  0.15139
[ bonds ]
28263 28265     1  0.09572  0.15139
[ bonds ]
28266 28267     1  0.09572  0.15139
[ bonds ]
28266 28268     1  0.09572  0.15139
[ bonds ]
28269 28270     1  0.09572  0.15139
[ bonds ]
28269 28271     1  0.09572  0.15139
[ bonds ]
28272 28273     1  0.09572  0.15139
[ bonds ]
28272 28274     1  0.09572  0.15139
[ bonds ]
28275 28276     1  0.09572  0.15139
[ bonds ]
28275 28277     1  0.09572  0.15139
[ bonds ]
28278 28279     1  0.09572  0.15139
[ bonds ]
28278 28280     1  0.09572  0.15139
[ bonds ]
28281 28282     1  0.09572  0.15139
[ bonds ]
28281 28283     1  0.09572  0.15139
[ bonds ]
28284 28285     1  0.09572  0.15139
[ bonds ]
28284 28286     1  0.09572  0.15139
[ bonds ]
28287 28288     1  0.09572  0.15139
[ bonds ]
28287 28289     1  0.09572  0.15139
[ bonds ]
28290 28291     1  0.09572  0.15139
[ bonds ]
28290 28292     1  0.09572  0.15139
[ bonds ]
28293 28294     1  0.09572  0.15139
[ bonds ]
28293 28295     1  0.09572  0.15139
[ bonds ]
28296 28297     1  0.09572  0.15139
[ bonds ]
28296 28298     1  0.09572  0.15139
[ bonds ]
28299 28300     1  0.09572  0.15139
[ bonds ]
28299 28301     1  0.09572  0.15139
[ bonds ]
28302 28303     1  0.09572  0.15139
[ bonds ]
28302 28304     1  0.09572  0.15139
[ bonds ]
28305 28306     1  0.09572  0.15139
[ bonds ]
28305 28307     1  0.09572  0.15139
[ bonds ]
28308 28309     1  0.09572  0.15139
[ bonds ]
28308 28310     1  0.09572  0.15139
[ bonds ]
28311 28312     1  0.09572  0.15139
[ bonds ]
28311 28313     1  0.09572  0.15139
[ bonds ]
28314 28315     1  0.09572  0.15139
[ bonds ]
28314 28316     1  0.09572  0.15139
[ bonds ]
28317 28318     1  0.09572  0.15139
[ bonds ]
28317 28319     1  0.09572  0.15139
[ bonds ]
28320 28321     1  0.09572  0.15139
[ bonds ]
28320 28322     1  0.09572  0.15139
[ bonds ]
28323 28324     1  0.09572  0.15139
[ bonds ]
28323 28325     1  0.09572  0.15139
[ bonds ]
28326 28327     1  0.09572  0.15139
[ bonds ]
28326 28328     1  0.09572  0.15139
[ bonds ]
28329 28330     1  0.09572  0.15139
[ bonds ]
28329 28331     1  0.09572  0.15139
[ bonds ]
28332 28333     1  0.09572  0.15139
[ bonds ]
28332 28334     1  0.09572  0.15139
[ bonds ]
28335 28336     1  0.09572  0.15139
[ bonds ]
28335 28337     1  0.09572  0.15139
[ bonds ]
28338 28339     1  0.09572  0.15139
[ bonds ]
28338 28340     1  0.09572  0.15139
[ bonds ]
28341 28342     1  0.09572  0.15139
[ bonds ]
28341 28343     1  0.09572  0.15139
[ bonds ]
28344 28345     1  0.09572  0.15139
[ bonds ]
28344 28346     1  0.09572  0.15139
[ bonds ]
28347 28348     1  0.09572  0.15139
[ bonds ]
28347 28349     1  0.09572  0.15139
[ bonds ]
28350 28351     1  0.09572  0.15139
[ bonds ]
28350 28352     1  0.09572  0.15139
[ bonds ]
28353 28354     1  0.09572  0.15139
[ bonds ]
28353 28355     1  0.09572  0.15139
[ bonds ]
28356 28357     1  0.09572  0.15139
[ bonds ]
28356 28358     1  0.09572  0.15139
[ bonds ]
28359 28360     1  0.09572  0.15139
[ bonds ]
28359 28361     1  0.09572  0.15139
[ bonds ]
28362 28363     1  0.09572  0.15139
[ bonds ]
28362 28364     1  0.09572  0.15139
[ bonds ]
28365 28366     1  0.09572  0.15139
[ bonds ]
28365 28367     1  0.09572  0.15139
[ bonds ]
28368 28369     1  0.09572  0.15139
[ bonds ]
28368 28370     1  0.09572  0.15139
[ bonds ]
28371 28372     1  0.09572  0.15139
[ bonds ]
28371 28373     1  0.09572  0.15139
[ bonds ]
28374 28375     1  0.09572  0.15139
[ bonds ]
28374 28376     1  0.09572  0.15139
[ bonds ]
28377 28378     1  0.09572  0.15139
[ bonds ]
28377 28379     1  0.09572  0.15139
[ bonds ]
28380 28381     1  0.09572  0.15139
[ bonds ]
28380 28382     1  0.09572  0.15139
[ bonds ]
28383 28384     1  0.09572  0.15139
[ bonds ]
28383 28385     1  0.09572  0.15139
[ bonds ]
28386 28387     1  0.09572  0.15139
[ bonds ]
28386 28388     1  0.09572  0.15139
[ bonds ]
28389 28390     1  0.09572  0.15139
[ bonds ]
28389 28391     1  0.09572  0.15139
[ bonds ]
28392 28393     1  0.09572  0.15139
[ bonds ]
28392 28394     1  0.09572  0.15139
[ bonds ]
28395 28396     1  0.09572  0.15139
[ bonds ]
28395 28397     1  0.09572  0.15139
[ bonds ]
28398 28399     1  0.09572  0.15139
[ bonds ]
28398 28400     1  0.09572  0.15139
[ bonds ]
28401 28402     1  0.09572  0.15139
[ bonds ]
28401 28403     1  0.09572  0.15139
[ bonds ]
28404 28405     1  0.09572  0.15139
[ bonds ]
28404 28406     1  0.09572  0.15139
[ bonds ]
28407 28408     1  0.09572  0.15139
[ bonds ]
28407 28409     1  0.09572  0.15139
[ bonds ]
28410 28411     1  0.09572  0.15139
[ bonds ]
28410 28412     1  0.09572  0.15139
[ bonds ]
28413 28414     1  0.09572  0.15139
[ bonds ]
28413 28415     1  0.09572  0.15139
[ bonds ]
28416 28417     1  0.09572  0.15139
[ bonds ]
28416 28418     1  0.09572  0.15139
[ bonds ]
28419 28420     1  0.09572  0.15139
[ bonds ]
28419 28421     1