Cu slab + SH in water
13749
    1CU      Cu    1   0.008   0.009   0.048  0.0000  0.0000  0.0000
    2CU      Cu    2   0.009   0.001   0.403  0.0000  0.0000  0.0000
    3CU      Cu    3   0.004   0.178   0.221  0.0000  0.0000  0.0000
    4CU      Cu    4   0.185   0.011   0.232  0.0000  0.0000  0.0000
    5CU      Cu    5   0.193   0.177   0.052  0.0000  0.0000  0.0000
    6CU      Cu    6   0.180   0.183   0.411  0.0000  0.0000  0.0000
    7CU      Cu    7   0.371   0.010   0.059  0.0000  0.0000  0.0000
    8CU      Cu    8   0.360   0.012   0.416  0.0000  0.0000  0.0000
    9CU      Cu    9   0.368   0.180   0.237  0.0000  0.0000  0.0000
   10CU      Cu   10   0.547   0.011   0.242  0.0000  0.0000  0.0000
   11CU      Cu   11   0.550   0.178   0.061  0.0000  0.0000  0.0000
   12CU      Cu   12   0.543   0.180   0.425  0.0000  0.0000  0.0000
   13CU      Cu   13   0.727   0.011   0.062  0.0000  0.0000  0.0000
   14CU      Cu   14   0.725   0.012   0.427  0.0000  0.0000  0.0000
   15CU      Cu   15   0.726   0.179   0.243  0.0000  0.0000  0.0000
   16CU      Cu   16   0.905   0.012   0.243  0.0000  0.0000  0.0000
   17CU      Cu   17   0.905   0.178   0.060  0.0000  0.0000  0.0000
   18CU      Cu   18   0.906   0.181   0.426  0.0000  0.0000  0.0000
   19CU      Cu   19   1.083   0.011   0.059  0.0000  0.0000  0.0000
   20CU      Cu   20   1.086   0.012   0.427  0.0000  0.0000  0.0000
   21CU      Cu   21   1.086   0.179   0.241  0.0000  0.0000  0.0000
   22CU      Cu   22   1.264   0.011   0.240  0.0000  0.0000  0.0000
   23CU      Cu   23   1.263   0.178   0.057  0.0000  0.0000  0.0000
   24CU      Cu   24   1.267   0.179   0.424  0.0000  0.0000  0.0000
   25CU      Cu   25   1.442   0.010   0.056  0.0000  0.0000  0.0000
   26CU      Cu   26   1.448   0.010   0.418  0.0000  0.0000  0.0000
   27CU      Cu   27   1.444   0.180   0.237  0.0000  0.0000  0.0000
   28CU      Cu   28   1.625   0.012   0.234  0.0000  0.0000  0.0000
   29CU      Cu   29   1.622   0.178   0.052  0.0000  0.0000  0.0000
   30CU      Cu   30   1.626   0.181   0.417  0.0000  0.0000  0.0000
   31CU      Cu   31   1.805   0.010   0.052  0.0000  0.0000  0.0000
   32CU      Cu   32   1.807   0.001   0.410  0.0000  0.0000  0.0000
   33CU      Cu   33   1.805   0.180   0.228  0.0000  0.0000  0.0000
   34CU      Cu   34   1.988   0.002   0.229  0.0000  0.0000  0.0000
   35CU      Cu   35   1.990   0.179   0.049  0.0000  0.0000  0.0000
   36CU      Cu   36   1.989   0.185   0.411  0.0000  0.0000  0.0000
   37CU      Cu   37   2.174   0.000   0.055  0.0000  0.0000  0.0000
   38CU      Cu   38   2.169   0.000   0.404  0.0000  0.0000  0.0000
   39CU      Cu   39   2.172   0.183   0.231  0.0000  0.0000  0.0000
   40CU      Cu   40   2.355   0.001   0.234  0.0000  0.0000  0.0000
   41CU      Cu   41   2.356   0.181   0.055  0.0000  0.0000  0.0000
   42CU      Cu   42   2.350   0.182   0.416  0.0000  0.0000  0.0000
   43CU      Cu   43   2.536   0.002   0.055  0.0000  0.0000  0.0000
   44CU      Cu   44   2.531   0.001   0.422  0.0000  0.0000  0.0000
   45CU      Cu   45   2.534   0.181   0.237  0.0000  0.0000  0.0000
   46CU      Cu   46   2.713   0.001   0.239  0.0000  0.0000  0.0000
   47CU      Cu   47   2.715   0.183   0.057  0.0000  0.0000  0.0000
   48CU      Cu   48   2.713   0.180   0.424  0.0000  0.0000  0.0000
   49CU      Cu   49   2.892   0.003   0.057  0.0000  0.0000  0.0000
   50CU      Cu   50   2.893   0.000   0.424  0.0000  0.0000  0.0000
   51CU      Cu   51   2.892   0.181   0.240  0.0000  0.0000  0.0000
   52CU      Cu   52   3.070   0.002   0.239  0.0000  0.0000  0.0000
   53CU      Cu   53   3.070   0.184   0.059  0.0000  0.0000  0.0000
   54CU      Cu   54   3.072   0.181   0.427  0.0000  0.0000  0.0000
   55CU      Cu   55   3.246   0.004   0.056  0.0000  0.0000  0.0000
   56CU      Cu   56   3.252   0.012   0.421  0.0000  0.0000  0.0000
   57CU      Cu   57   3.249   0.182   0.241  0.0000  0.0000  0.0000
   58CU      Cu   58   3.429   0.004   0.232  0.0000  0.0000  0.0000
   59CU      Cu   59   3.424   0.185   0.055  0.0000  0.0000  0.0000
   60CU      Cu   60   3.433   0.180   0.420  0.0000  0.0000  0.0000
   61CU      Cu   61   3.606   0.003   0.049  0.0000  0.0000  0.0000
   62CU      Cu   62   3.615   0.001   0.410  0.0000  0.0000  0.0000
   63CU      Cu   63   3.609   0.182   0.229  0.0000  0.0000  0.0000
   64CU      Cu   64   3.792   0.003   0.224  0.0000  0.0000  0.0000
   65CU      Cu   65   3.787   0.183   0.046  0.0000  0.0000  0.0000
   66CU      Cu   66   3.795   0.184   0.404  0.0000  0.0000  0.0000
   67CU      Cu   67   3.974   0.012   0.045  0.0000  0.0000  0.0000
   68CU      Cu   68   3.980   0.002   0.395  0.0000  0.0000  0.0000
   69CU      Cu   69   3.973   0.182   0.218  0.0000  0.0000  0.0000
   70CU      Cu   70   4.159   0.010   0.220  0.0000  0.0000  0.0000
   71CU      Cu   71   4.159   0.179   0.044  0.0000  0.0000  0.0000
   72CU      Cu   72   4.156   0.180   0.393  0.0000  0.0000  0.0000
   73CU      Cu   73   0.008   0.361   0.047  0.0000  0.0000  0.0000
   74CU      Cu   74   0.001   0.362   0.389  0.0000  0.0000  0.0000
   75CU      Cu   75   0.004   0.545   0.217  0.0000  0.0000  0.0000
   76CU      Cu   76   0.189   0.359   0.224  0.0000  0.0000  0.0000
   77CU      Cu   77   0.193   0.544   0.050  0.0000  0.0000  0.0000
   78CU      Cu   78   0.181   0.537   0.395  0.0000  0.0000  0.0000
   79CU      Cu   79   0.374   0.360   0.055  0.0000  0.0000  0.0000
   80CU      Cu   80   0.364   0.363   0.419  0.0000  0.0000  0.0000
   81CU      Cu   81   0.371   0.543   0.233  0.0000  0.0000  0.0000
   82CU      Cu   82   0.548   0.362   0.240  0.0000  0.0000  0.0000
   83CU      Cu   83   0.551   0.543   0.057  0.0000  0.0000  0.0000
   84CU      Cu   84   0.548   0.546   0.422  0.0000  0.0000  0.0000
   85CU      Cu   85   0.727   0.360   0.060  0.0000  0.0000  0.0000
   86CU      Cu   86   0.725   0.362   0.421  0.0000  0.0000  0.0000
   87CU      Cu   87   0.728   0.543   0.237  0.0000  0.0000  0.0000
   88CU      Cu   88   0.907   0.359   0.239  0.0000  0.0000  0.0000
   89CU      Cu   89   0.908   0.541   0.058  0.0000  0.0000  0.0000
   90CU      Cu   90   0.909   0.542   0.413  0.0000  0.0000  0.0000
   91CU      Cu   91   1.085   0.359   0.057  0.0000  0.0000  0.0000
   92CU      Cu   92   1.087   0.361   0.424  0.0000  0.0000  0.0000
   93CU      Cu   93   1.088   0.541   0.237  0.0000  0.0000  0.0000
   94CU      Cu   94   1.265   0.360   0.238  0.0000  0.0000  0.0000
   95CU      Cu   95   1.264   0.541   0.055  0.0000  0.0000  0.0000
   96CU      Cu   96   1.266   0.543   0.420  0.0000  0.0000  0.0000
   97CU      Cu   97   1.441   0.359   0.053  0.0000  0.0000  0.0000
   98CU      Cu   98   1.446   0.362   0.422  0.0000  0.0000  0.0000
   99CU      Cu   99   1.444   0.541   0.235  0.0000  0.0000  0.0000
  100CU      Cu  100   1.622   0.361   0.231  0.0000  0.0000  0.0000
  101CU      Cu  101   1.621   0.541   0.050  0.0000  0.0000  0.0000
  102CU      Cu  102   1.627   0.541   0.417  0.0000  0.0000  0.0000
  103CU      Cu  103   1.804   0.360   0.050  0.0000  0.0000  0.0000
  104CU      Cu  104   1.805   0.360   0.402  0.0000  0.0000  0.0000
  105CU      Cu  105   1.804   0.542   0.227  0.0000  0.0000  0.0000
  106CU      Cu  106   1.990   0.359   0.225  0.0000  0.0000  0.0000
  107CU      Cu  107   1.991   0.542   0.052  0.0000  0.0000  0.0000
  108CU      Cu  108   1.988   0.536   0.399  0.0000  0.0000  0.0000
  109CU      Cu  109   2.175   0.362   0.051  0.0000  0.0000  0.0000
  110CU      Cu  110   2.173   0.365   0.414  0.0000  0.0000  0.0000
  111CU      Cu  111   2.175   0.542   0.230  0.0000  0.0000  0.0000
  112CU      Cu  112   2.355   0.362   0.234  0.0000  0.0000  0.0000
  113CU      Cu  113   2.357   0.544   0.053  0.0000  0.0000  0.0000
  114CU      Cu  114   2.361   0.544   0.415  0.0000  0.0000  0.0000
  115CU      Cu  115   2.536   0.363   0.056  0.0000  0.0000  0.0000
  116CU      Cu  116   2.534   0.359   0.418  0.0000  0.0000  0.0000
  117CU      Cu  117   2.535   0.544   0.235  0.0000  0.0000  0.0000
  118CU      Cu  118   2.713   0.362   0.239  0.0000  0.0000  0.0000
  119CU      Cu  119   2.716   0.545   0.059  0.0000  0.0000  0.0000
  120CU      Cu  120   2.710   0.546   0.415  0.0000  0.0000  0.0000
  121CU      Cu  121   2.893   0.364   0.061  0.0000  0.0000  0.0000
  122CU      Cu  122   2.892   0.362   0.420  0.0000  0.0000  0.0000
  123CU      Cu  123   2.893   0.545   0.241  0.0000  0.0000  0.0000
  124CU      Cu  124   3.072   0.363   0.243  0.0000  0.0000  0.0000
  125CU      Cu  125   3.071   0.545   0.062  0.0000  0.0000  0.0000
  126CU      Cu  126   3.071   0.544   0.427  0.0000  0.0000  0.0000
  127CU      Cu  127   3.247   0.365   0.059  0.0000  0.0000  0.0000
  128CU      Cu  128   3.252   0.362   0.426  0.0000  0.0000  0.0000
  129CU      Cu  129   3.250   0.544   0.243  0.0000  0.0000  0.0000
  130CU      Cu  130   3.427   0.363   0.237  0.0000  0.0000  0.0000
  131CU      Cu  131   3.426   0.545   0.058  0.0000  0.0000  0.0000
  132CU      Cu  132   3.433   0.543   0.424  0.0000  0.0000  0.0000
  133CU      Cu  133   3.603   0.365   0.052  0.0000  0.0000  0.0000
  134CU      Cu  134   3.611   0.361   0.407  0.0000  0.0000  0.0000
  135CU      Cu  135   3.608   0.545   0.233  0.0000  0.0000  0.0000
  136CU      Cu  136   3.789   0.363   0.223  0.0000  0.0000  0.0000
  137CU      Cu  137   3.786   0.547   0.051  0.0000  0.0000  0.0000
  138CU      Cu  138   3.794   0.541   0.403  0.0000  0.0000  0.0000
  139CU      Cu  139   3.970   0.365   0.045  0.0000  0.0000  0.0000
  140CU      Cu  140   3.972   0.363   0.395  0.0000  0.0000  0.0000
  141CU      Cu  141   3.972   0.546   0.220  0.0000  0.0000  0.0000
  142CU      Cu  142   4.156   0.361   0.216  0.0000  0.0000  0.0000
  143CU      Cu  143   4.157   0.547   0.046  0.0000  0.0000  0.0000
  144CU      Cu  144   4.157   0.543   0.388  0.0000  0.0000  0.0000
  145CU      Cu  145   0.006   0.730   0.048  0.0000  0.0000  0.0000
  146CU      Cu  146   0.002   0.721   0.403  0.0000  0.0000  0.0000
  147CU      Cu  147   0.004   0.908   0.230  0.0000  0.0000  0.0000
  148CU      Cu  148   0.187   0.726   0.229  0.0000  0.0000  0.0000
  149CU      Cu  149   0.189   0.908   0.053  0.0000  0.0000  0.0000
  150CU      Cu  150   0.182   0.903   0.416  0.0000  0.0000  0.0000
  151CU      Cu  151   0.371   0.726   0.055  0.0000  0.0000  0.0000
  152CU      Cu  152   0.363   0.722   0.417  0.0000  0.0000  0.0000
  153CU      Cu  153   0.368   0.905   0.236  0.0000  0.0000  0.0000
  154CU      Cu  154   0.549   0.725   0.238  0.0000  0.0000  0.0000
  155CU      Cu  155   0.549   0.905   0.055  0.0000  0.0000  0.0000
  156CU      Cu  156   0.549   0.903   0.422  0.0000  0.0000  0.0000
  157CU      Cu  157   0.730   0.725   0.056  0.0000  0.0000  0.0000
  158CU      Cu  158   0.736   0.727   0.413  0.0000  0.0000  0.0000
  159CU      Cu  159   0.728   0.907   0.235  0.0000  0.0000  0.0000
  160CU      Cu  160   0.911   0.726   0.234  0.0000  0.0000  0.0000
  161CU      Cu  161   0.910   0.906   0.055  0.0000  0.0000  0.0000
  162CU      Cu  162   0.911   0.912   0.414  0.0000  0.0000  0.0000
  163CU      Cu  163   1.088   0.724   0.056  0.0000  0.0000  0.0000
  164CU      Cu  164   1.087   0.725   0.419  0.0000  0.0000  0.0000
  165CU      Cu  165   1.090   0.907   0.236  0.0000  0.0000  0.0000
  166CU      Cu  166   1.266   0.724   0.237  0.0000  0.0000  0.0000
  167CU      Cu  167   1.266   0.906   0.056  0.0000  0.0000  0.0000
  168CU      Cu  168   1.267   0.906   0.422  0.0000  0.0000  0.0000
  169CU      Cu  169   1.443   0.723   0.054  0.0000  0.0000  0.0000
  170CU      Cu  170   1.447   0.723   0.418  0.0000  0.0000  0.0000
  171CU      Cu  171   1.445   0.904   0.236  0.0000  0.0000  0.0000
  172CU      Cu  172   1.625   0.721   0.232  0.0000  0.0000  0.0000
  173CU      Cu  173   1.625   0.903   0.053  0.0000  0.0000  0.0000
  174CU      Cu  174   1.628   0.901   0.410  0.0000  0.0000  0.0000
  175CU      Cu  175   1.807   0.723   0.050  0.0000  0.0000  0.0000
  176CU      Cu  176   1.809   0.720   0.415  0.0000  0.0000  0.0000
  177CU      Cu  177   1.810   0.901   0.232  0.0000  0.0000  0.0000
  178CU      Cu  178   1.991   0.723   0.230  0.0000  0.0000  0.0000
  179CU      Cu  179   1.992   0.902   0.051  0.0000  0.0000  0.0000
  180CU      Cu  180   1.992   0.899   0.418  0.0000  0.0000  0.0000
  181CU      Cu  181   2.174   0.724   0.052  0.0000  0.0000  0.0000
  182CU      Cu  182   2.172   0.718   0.416  0.0000  0.0000  0.0000
  183CU      Cu  183   2.172   0.903   0.235  0.0000  0.0000  0.0000
  184CU      Cu  184   2.354   0.725   0.234  0.0000  0.0000  0.0000
  185CU      Cu  185   2.356   0.905   0.054  0.0000  0.0000  0.0000
  186CU      Cu  186   2.350   0.904   0.420  0.0000  0.0000  0.0000
  187CU      Cu  187   2.538   0.726   0.057  0.0000  0.0000  0.0000
  188CU      Cu  188   2.535   0.732   0.413  0.0000  0.0000  0.0000
  189CU      Cu  189   2.535   0.908   0.236  0.0000  0.0000  0.0000
  190CU      Cu  190   2.715   0.728   0.238  0.0000  0.0000  0.0000
  191CU      Cu  191   2.717   0.907   0.058  0.0000  0.0000  0.0000
  192CU      Cu  192   2.716   0.910   0.424  0.0000  0.0000  0.0000
  193CU      Cu  193   2.895   0.725   0.061  0.0000  0.0000  0.0000
  194CU      Cu  194   2.892   0.725   0.426  0.0000  0.0000  0.0000
  195CU      Cu  195   2.894   0.907   0.240  0.0000  0.0000  0.0000
  196CU      Cu  196   3.072   0.724   0.242  0.0000  0.0000  0.0000
  197CU      Cu  197   3.073   0.905   0.059  0.0000  0.0000  0.0000
  198CU      Cu  198   3.072   0.906   0.418  0.0000  0.0000  0.0000
  199CU      Cu  199   3.250   0.724   0.061  0.0000  0.0000  0.0000
  200CU      Cu  200   3.252   0.725   0.427  0.0000  0.0000  0.0000
  201CU      Cu  201   3.252   0.903   0.238  0.0000  0.0000  0.0000
  202CU      Cu  202   3.431   0.723   0.240  0.0000  0.0000  0.0000
  203CU      Cu  203   3.431   0.905   0.059  0.0000  0.0000  0.0000
  204CU      Cu  204   3.434   0.903   0.418  0.0000  0.0000  0.0000
  205CU      Cu  205   3.607   0.727   0.057  0.0000  0.0000  0.0000
  206CU      Cu  206   3.615   0.723   0.420  0.0000  0.0000  0.0000
  207CU      Cu  207   3.613   0.905   0.238  0.0000  0.0000  0.0000
  208CU      Cu  208   3.792   0.727   0.232  0.0000  0.0000  0.0000
  209CU      Cu  209   3.791   0.908   0.053  0.0000  0.0000  0.0000
  210CU      Cu  210   3.797   0.903   0.420  0.0000  0.0000  0.0000
  211CU      Cu  211   3.972   0.730   0.050  0.0000  0.0000  0.0000
  212CU      Cu  212   3.980   0.724   0.404  0.0000  0.0000  0.0000
  213CU      Cu  213   3.975   0.908   0.232  0.0000  0.0000  0.0000
  214CU      Cu  214   4.158   0.729   0.222  0.0000  0.0000  0.0000
  215CU      Cu  215   4.158   0.912   0.051  0.0000  0.0000  0.0000
  216CU      Cu  216   4.161   0.904   0.408  0.0000  0.0000  0.0000
  217CU      Cu  217   0.005   1.088   0.053  0.0000  0.0000  0.0000
  218CU      Cu  218   0.003   1.086   0.415  0.0000  0.0000  0.0000
  219CU      Cu  219   0.003   1.266   0.235  0.0000  0.0000  0.0000
  220CU      Cu  220   0.186   1.086   0.234  0.0000  0.0000  0.0000
  221CU      Cu  221   0.187   1.267   0.053  0.0000  0.0000  0.0000
  222CU      Cu  222   0.187   1.266   0.413  0.0000  0.0000  0.0000
  223CU      Cu  223   0.369   1.086   0.053  0.0000  0.0000  0.0000
  224CU      Cu  224   0.365   1.084   0.420  0.0000  0.0000  0.0000
  225CU      Cu  225   0.367   1.265   0.233  0.0000  0.0000  0.0000
  226CU      Cu  226   0.547   1.085   0.236  0.0000  0.0000  0.0000
  227CU      Cu  227   0.548   1.267   0.053  0.0000  0.0000  0.0000
  228CU      Cu  228   0.546   1.265   0.420  0.0000  0.0000  0.0000
  229CU      Cu  229   0.729   1.087   0.054  0.0000  0.0000  0.0000
  230CU      Cu  230   0.727   1.087   0.417  0.0000  0.0000  0.0000
  231CU      Cu  231   0.725   1.267   0.234  0.0000  0.0000  0.0000
  232CU      Cu  232   0.909   1.087   0.232  0.0000  0.0000  0.0000
  233CU      Cu  233   0.909   1.271   0.058  0.0000  0.0000  0.0000
  234CU      Cu  234   0.910   1.268   0.404  0.0000  0.0000  0.0000
  235CU      Cu  235   1.090   1.090   0.056  0.0000  0.0000  0.0000
  236CU      Cu  236   1.090   1.091   0.419  0.0000  0.0000  0.0000
  237CU      Cu  237   1.093   1.269   0.235  0.0000  0.0000  0.0000
  238CU      Cu  238   1.270   1.087   0.238  0.0000  0.0000  0.0000
  239CU      Cu  239   1.271   1.269   0.056  0.0000  0.0000  0.0000
  240CU      Cu  240   1.274   1.270   0.423  0.0000  0.0000  0.0000
  241CU      Cu  241   1.447   1.086   0.055  0.0000  0.0000  0.0000
  242CU      Cu  242   1.450   1.084   0.421  0.0000  0.0000  0.0000
  243CU      Cu  243   1.451   1.265   0.237  0.0000  0.0000  0.0000
  244CU      Cu  244   1.629   1.082   0.233  0.0000  0.0000  0.0000
  245CU      Cu  245   1.629   1.265   0.055  0.0000  0.0000  0.0000
  246CU      Cu  246   1.635   1.260   0.412  0.0000  0.0000  0.0000
  247CU      Cu  247   1.809   1.082   0.052  0.0000  0.0000  0.0000
  248CU      Cu  248   1.813   1.081   0.416  0.0000  0.0000  0.0000
  249CU      Cu  249   1.812   1.263   0.231  0.0000  0.0000  0.0000
  250CU      Cu  250   1.992   1.081   0.232  0.0000  0.0000  0.0000
  251CU      Cu  251   1.993   1.263   0.051  0.0000  0.0000  0.0000
  252CU      Cu  252   1.993   1.266   0.408  0.0000  0.0000  0.0000
  253CU      Cu  253   2.175   1.082   0.052  0.0000  0.0000  0.0000
  254CU      Cu  254   2.170   1.084   0.418  0.0000  0.0000  0.0000
  255CU      Cu  255   2.174   1.262   0.230  0.0000  0.0000  0.0000
  256CU      Cu  256   2.353   1.084   0.236  0.0000  0.0000  0.0000
  257CU      Cu  257   2.357   1.265   0.054  0.0000  0.0000  0.0000
  258CU      Cu  258   2.352   1.265   0.419  0.0000  0.0000  0.0000
  259CU      Cu  259   2.537   1.086   0.056  0.0000  0.0000  0.0000
  260CU      Cu  260   2.532   1.086   0.419  0.0000  0.0000  0.0000
  261CU      Cu  261   2.535   1.266   0.238  0.0000  0.0000  0.0000
  262CU      Cu  262   2.716   1.088   0.239  0.0000  0.0000  0.0000
  263CU      Cu  263   2.717   1.267   0.058  0.0000  0.0000  0.0000
  264CU      Cu  264   2.715   1.266   0.424  0.0000  0.0000  0.0000
  265CU      Cu  265   2.896   1.088   0.058  0.0000  0.0000  0.0000
  266CU      Cu  266   2.899   1.091   0.418  0.0000  0.0000  0.0000
  267CU      Cu  267   2.897   1.269   0.239  0.0000  0.0000  0.0000
  268CU      Cu  268   3.076   1.087   0.236  0.0000  0.0000  0.0000
  269CU      Cu  269   3.076   1.268   0.057  0.0000  0.0000  0.0000
  270CU      Cu  270   3.086   1.267   0.416  0.0000  0.0000  0.0000
  271CU      Cu  271   3.254   1.086   0.056  0.0000  0.0000  0.0000
  272CU      Cu  272   3.257   1.080   0.415  0.0000  0.0000  0.0000
  273CU      Cu  273   3.258   1.267   0.235  0.0000  0.0000  0.0000
  274CU      Cu  274   3.434   1.085   0.237  0.0000  0.0000  0.0000
  275CU      Cu  275   3.434   1.267   0.055  0.0000  0.0000  0.0000
  276CU      Cu  276   3.436   1.266   0.419  0.0000  0.0000  0.0000
  277CU      Cu  277   3.612   1.086   0.056  0.0000  0.0000  0.0000
  278CU      Cu  278   3.616   1.086   0.418  0.0000  0.0000  0.0000
  279CU      Cu  279   3.614   1.266   0.236  0.0000  0.0000  0.0000
  280CU      Cu  280   3.795   1.085   0.237  0.0000  0.0000  0.0000
  281CU      Cu  281   3.794   1.265   0.057  0.0000  0.0000  0.0000
  282CU      Cu  282   3.796   1.266   0.415  0.0000  0.0000  0.0000
  283CU      Cu  283   3.974   1.088   0.055  0.0000  0.0000  0.0000
  284CU      Cu  284   3.978   1.084   0.420  0.0000  0.0000  0.0000
  285CU      Cu  285   3.978   1.265   0.237  0.0000  0.0000  0.0000
  286CU      Cu  286   4.158   1.088   0.234  0.0000  0.0000  0.0000
  287CU      Cu  287   4.159   1.266   0.055  0.0000  0.0000  0.0000
  288CU      Cu  288   4.160   1.265   0.421  0.0000  0.0000  0.0000
  289CU      Cu  289   0.003   1.445   0.054  0.0000  0.0000  0.0000
  290CU      Cu  290   0.004   1.445   0.419  0.0000  0.0000  0.0000
  291CU      Cu  291   0.001   1.625   0.234  0.0000  0.0000  0.0000
  292CU      Cu  292   0.184   1.446   0.233  0.0000  0.0000  0.0000
  293CU      Cu  293   0.185   1.627   0.055  0.0000  0.0000  0.0000
  294CU      Cu  294   0.183   1.627   0.412  0.0000  0.0000  0.0000
  295CU      Cu  295   0.368   1.448   0.054  0.0000  0.0000  0.0000
  296CU      Cu  296   0.367   1.446   0.412  0.0000  0.0000  0.0000
  297CU      Cu  297   0.366   1.627   0.234  0.0000  0.0000  0.0000
  298CU      Cu  298   0.547   1.447   0.235  0.0000  0.0000  0.0000
  299CU      Cu  299   0.548   1.631   0.057  0.0000  0.0000  0.0000
  300CU      Cu  300   0.546   1.626   0.421  0.0000  0.0000  0.0000
  301CU      Cu  301   0.728   1.450   0.056  0.0000  0.0000  0.0000
  302CU      Cu  302   0.727   1.445   0.420  0.0000  0.0000  0.0000
  303CU      Cu  303   0.726   1.628   0.239  0.0000  0.0000  0.0000
  304CU      Cu  304   0.908   1.451   0.235  0.0000  0.0000  0.0000
  305CU      Cu  305   0.908   1.631   0.058  0.0000  0.0000  0.0000
  306CU      Cu  306   0.908   1.626   0.422  0.0000  0.0000  0.0000
  307CU      Cu  307   1.090   1.450   0.058  0.0000  0.0000  0.0000
  308CU      Cu  308   1.089   1.447   0.422  0.0000  0.0000  0.0000
  309CU      Cu  309   1.090   1.627   0.240  0.0000  0.0000  0.0000
  310CU      Cu  310   1.272   1.447   0.239  0.0000  0.0000  0.0000
  311CU      Cu  311   1.269   1.628   0.060  0.0000  0.0000  0.0000
  312CU      Cu  312   1.274   1.623   0.422  0.0000  0.0000  0.0000
  313CU      Cu  313   1.451   1.448   0.057  0.0000  0.0000  0.0000
  314CU      Cu  314   1.462   1.446   0.414  0.0000  0.0000  0.0000
  315CU      Cu  315   1.451   1.628   0.236  0.0000  0.0000  0.0000
  316CU      Cu  316   1.634   1.446   0.233  0.0000  0.0000  0.0000
  317CU      Cu  317   1.630   1.628   0.054  0.0000  0.0000  0.0000
  318CU      Cu  318   1.635   1.632   0.411  0.0000  0.0000  0.0000
  319CU      Cu  319   1.811   1.445   0.052  0.0000  0.0000  0.0000
  320CU      Cu  320   1.814   1.446   0.413  0.0000  0.0000  0.0000
  321CU      Cu  321   1.812   1.626   0.230  0.0000  0.0000  0.0000
  322CU      Cu  322   1.992   1.445   0.228  0.0000  0.0000  0.0000
  323CU      Cu  323   1.994   1.628   0.053  0.0000  0.0000  0.0000
  324CU      Cu  324   1.995   1.625   0.407  0.0000  0.0000  0.0000
  325CU      Cu  325   2.176   1.446   0.053  0.0000  0.0000  0.0000
  326CU      Cu  326   2.175   1.445   0.405  0.0000  0.0000  0.0000
  327CU      Cu  327   2.176   1.627   0.230  0.0000  0.0000  0.0000
  328CU      Cu  328   2.357   1.445   0.234  0.0000  0.0000  0.0000
  329CU      Cu  329   2.359   1.628   0.057  0.0000  0.0000  0.0000
  330CU      Cu  330   2.353   1.625   0.419  0.0000  0.0000  0.0000
  331CU      Cu  331   2.539   1.447   0.058  0.0000  0.0000  0.0000
  332CU      Cu  332   2.534   1.446   0.421  0.0000  0.0000  0.0000
  333CU      Cu  333   2.536   1.626   0.240  0.0000  0.0000  0.0000
  334CU      Cu  334   2.717   1.446   0.240  0.0000  0.0000  0.0000
  335CU      Cu  335   2.717   1.628   0.060  0.0000  0.0000  0.0000
  336CU      Cu  336   2.717   1.625   0.419  0.0000  0.0000  0.0000
  337CU      Cu  337   2.896   1.449   0.058  0.0000  0.0000  0.0000
  338CU      Cu  338   2.900   1.444   0.425  0.0000  0.0000  0.0000
  339CU      Cu  339   2.897   1.627   0.241  0.0000  0.0000  0.0000
  340CU      Cu  340   3.077   1.449   0.238  0.0000  0.0000  0.0000
  341CU      Cu  341   3.075   1.630   0.059  0.0000  0.0000  0.0000
  342CU      Cu  342   3.078   1.628   0.422  0.0000  0.0000  0.0000
  343CU      Cu  343   3.255   1.449   0.056  0.0000  0.0000  0.0000
  344CU      Cu  344   3.260   1.452   0.417  0.0000  0.0000  0.0000
  345CU      Cu  345   3.257   1.629   0.236  0.0000  0.0000  0.0000
  346CU      Cu  346   3.436   1.448   0.236  0.0000  0.0000  0.0000
  347CU      Cu  347   3.436   1.628   0.054  0.0000  0.0000  0.0000
  348CU      Cu  348   3.439   1.629   0.420  0.0000  0.0000  0.0000
  349CU      Cu  349   3.615   1.446   0.055  0.0000  0.0000  0.0000
  350CU      Cu  350   3.615   1.447   0.418  0.0000  0.0000  0.0000
  351CU      Cu  351   3.617   1.625   0.234  0.0000  0.0000  0.0000
  352CU      Cu  352   3.797   1.445   0.236  0.0000  0.0000  0.0000
  353CU      Cu  353   3.797   1.624   0.055  0.0000  0.0000  0.0000
  354CU      Cu  354   3.798   1.624   0.419  0.0000  0.0000  0.0000
  355CU      Cu  355   3.977   1.443   0.054  0.0000  0.0000  0.0000
  356CU      Cu  356   3.978   1.444   0.421  0.0000  0.0000  0.0000
  357CU      Cu  357   3.978   1.622   0.234  0.0000  0.0000  0.0000
  358CU      Cu  358   4.159   1.444   0.236  0.0000  0.0000  0.0000
  359CU      Cu  359   4.158   1.623   0.053  0.0000  0.0000  0.0000
  360CU      Cu  360   4.159   1.625   0.419  0.0000  0.0000  0.0000
  361CU      Cu  361   0.003   1.805   0.053  0.0000  0.0000  0.0000
  362CU      Cu  362   0.001   1.806   0.417  0.0000  0.0000  0.0000
  363CU      Cu  363   0.001   1.984   0.231  0.0000  0.0000  0.0000
  364CU      Cu  364   0.183   1.807   0.234  0.0000  0.0000  0.0000
  365CU      Cu  365   0.187   1.988   0.057  0.0000  0.0000  0.0000
  366CU      Cu  366   0.180   1.987   0.414  0.0000  0.0000  0.0000
  367CU      Cu  367   0.368   1.810   0.058  0.0000  0.0000  0.0000
  368CU      Cu  368   0.364   1.804   0.413  0.0000  0.0000  0.0000
  369CU      Cu  369   0.366   1.988   0.240  0.0000  0.0000  0.0000
  370CU      Cu  370   0.547   1.809   0.240  0.0000  0.0000  0.0000
  371CU      Cu  371   0.548   1.990   0.061  0.0000  0.0000  0.0000
  372CU      Cu  372   0.547   1.989   0.425  0.0000  0.0000  0.0000
  373CU      Cu  373   0.728   1.810   0.061  0.0000  0.0000  0.0000
  374CU      Cu  374   0.726   1.807   0.423  0.0000  0.0000  0.0000
  375CU      Cu  375   0.727   1.988   0.242  0.0000  0.0000  0.0000
  376CU      Cu  376   0.908   1.806   0.240  0.0000  0.0000  0.0000
  377CU      Cu  377   0.908   1.988   0.063  0.0000  0.0000  0.0000
  378CU      Cu  378   0.910   1.983   0.419  0.0000  0.0000  0.0000
  379CU      Cu  379   1.088   1.807   0.061  0.0000  0.0000  0.0000
  380CU      Cu  380   1.090   1.804   0.422  0.0000  0.0000  0.0000
  381CU      Cu  381   1.089   1.987   0.241  0.0000  0.0000  0.0000
  382CU      Cu  382   1.269   1.807   0.240  0.0000  0.0000  0.0000
  383CU      Cu  383   1.264   1.989   0.058  0.0000  0.0000  0.0000
  384CU      Cu  384   1.269   1.989   0.420  0.0000  0.0000  0.0000
  385CU      Cu  385   1.446   1.809   0.056  0.0000  0.0000  0.0000
  386CU      Cu  386   1.451   1.808   0.417  0.0000  0.0000  0.0000
  387CU      Cu  387   1.445   1.990   0.234  0.0000  0.0000  0.0000
  388CU      Cu  388   1.629   1.809   0.231  0.0000  0.0000  0.0000
  389CU      Cu  389   1.627   1.991   0.055  0.0000  0.0000  0.0000
  390CU      Cu  390   1.625   1.990   0.406  0.0000  0.0000  0.0000
  391CU      Cu  391   1.811   1.810   0.055  0.0000  0.0000  0.0000
  392CU      Cu  392   1.813   1.806   0.406  0.0000  0.0000  0.0000
  393CU      Cu  393   1.810   1.991   0.233  0.0000  0.0000  0.0000
  394CU      Cu  394   1.993   1.808   0.231  0.0000  0.0000  0.0000
  395CU      Cu  395   1.993   1.989   0.055  0.0000  0.0000  0.0000
  396CU      Cu  396   1.992   1.988   0.414  0.0000  0.0000  0.0000
  397CU      Cu  397   2.177   1.809   0.056  0.0000  0.0000  0.0000
  398CU      Cu  398   2.174   1.806   0.411  0.0000  0.0000  0.0000
  399CU      Cu  399   2.175   1.987   0.234  0.0000  0.0000  0.0000
  400CU      Cu  400   2.357   1.807   0.238  0.0000  0.0000  0.0000
  401CU      Cu  401   2.358   1.987   0.059  0.0000  0.0000  0.0000
  402CU      Cu  402   2.354   1.986   0.423  0.0000  0.0000  0.0000
  403CU      Cu  403   2.538   1.808   0.062  0.0000  0.0000  0.0000
  404CU      Cu  404   2.535   1.804   0.425  0.0000  0.0000  0.0000
  405CU      Cu  405   2.536   1.987   0.243  0.0000  0.0000  0.0000
  406CU      Cu  406   2.716   1.808   0.243  0.0000  0.0000  0.0000
  407CU      Cu  407   2.716   1.987   0.063  0.0000  0.0000  0.0000
  408CU      Cu  408   2.715   1.988   0.427  0.0000  0.0000  0.0000
  409CU      Cu  409   2.895   1.809   0.060  0.0000  0.0000  0.0000
  410CU      Cu  410   2.896   1.807   0.426  0.0000  0.0000  0.0000
  411CU      Cu  411   2.896   1.988   0.243  0.0000  0.0000  0.0000
  412CU      Cu  412   3.076   1.809   0.241  0.0000  0.0000  0.0000
  413CU      Cu  413   3.074   1.988   0.059  0.0000  0.0000  0.0000
  414CU      Cu  414   3.077   1.989   0.424  0.0000  0.0000  0.0000
  415CU      Cu  415   3.255   1.810   0.057  0.0000  0.0000  0.0000
  416CU      Cu  416   3.263   1.811   0.415  0.0000  0.0000  0.0000
  417CU      Cu  417   3.257   1.990   0.238  0.0000  0.0000  0.0000
  418CU      Cu  418   3.439   1.808   0.234  0.0000  0.0000  0.0000
  419CU      Cu  419   3.437   1.988   0.055  0.0000  0.0000  0.0000
  420CU      Cu  420   3.447   1.988   0.413  0.0000  0.0000  0.0000
  421CU      Cu  421   3.618   1.806   0.054  0.0000  0.0000  0.0000
  422CU      Cu  422   3.621   1.803   0.411  0.0000  0.0000  0.0000
  423CU      Cu  423   3.620   1.988   0.232  0.0000  0.0000  0.0000
  424CU      Cu  424   3.798   1.805   0.232  0.0000  0.0000  0.0000
  425CU      Cu  425   3.798   1.986   0.050  0.0000  0.0000  0.0000
  426CU      Cu  426   3.799   1.988   0.415  0.0000  0.0000  0.0000
  427CU      Cu  427   3.978   1.804   0.053  0.0000  0.0000  0.0000
  428CU      Cu  428   3.977   1.803   0.410  0.0000  0.0000  0.0000
  429CU      Cu  429   3.977   1.987   0.231  0.0000  0.0000  0.0000
  430CU      Cu  430   4.159   1.804   0.232  0.0000  0.0000  0.0000
  431CU      Cu  431   4.159   1.985   0.053  0.0000  0.0000  0.0000
  432CU      Cu  432   4.159   1.986   0.410  0.0000  0.0000  0.0000
  433CU      Cu  433   0.005   2.167   0.056  0.0000  0.0000  0.0000
  434CU      Cu  434   0.012   2.165   0.403  0.0000  0.0000  0.0000
  435CU      Cu  435   0.001   2.349   0.231  0.0000  0.0000  0.0000
  436CU      Cu  436   0.185   2.167   0.234  0.0000  0.0000  0.0000
  437CU      Cu  437   0.187   2.348   0.058  0.0000  0.0000  0.0000
  438CU      Cu  438   0.180   2.345   0.411  0.0000  0.0000  0.0000
  439CU      Cu  439   0.369   2.168   0.061  0.0000  0.0000  0.0000
  440CU      Cu  440   0.363   2.168   0.424  0.0000  0.0000  0.0000
  441CU      Cu  441   0.366   2.348   0.240  0.0000  0.0000  0.0000
  442CU      Cu  442   0.547   2.169   0.244  0.0000  0.0000  0.0000
  443CU      Cu  443   0.548   2.347   0.062  0.0000  0.0000  0.0000
  444CU      Cu  444   0.547   2.349   0.426  0.0000  0.0000  0.0000
  445CU      Cu  445   0.729   2.168   0.063  0.0000  0.0000  0.0000
  446CU      Cu  446   0.734   2.169   0.418  0.0000  0.0000  0.0000
  447CU      Cu  447   0.727   2.349   0.241  0.0000  0.0000  0.0000
  448CU      Cu  448   0.909   2.169   0.241  0.0000  0.0000  0.0000
  449CU      Cu  449   0.906   2.350   0.061  0.0000  0.0000  0.0000
  450CU      Cu  450   0.908   2.354   0.422  0.0000  0.0000  0.0000
  451CU      Cu  451   1.085   2.169   0.061  0.0000  0.0000  0.0000
  452CU      Cu  452   1.088   2.170   0.423  0.0000  0.0000  0.0000
  453CU      Cu  453   1.085   2.351   0.240  0.0000  0.0000  0.0000
  454CU      Cu  454   1.265   2.169   0.238  0.0000  0.0000  0.0000
  455CU      Cu  455   1.263   2.350   0.059  0.0000  0.0000  0.0000
  456CU      Cu  456   1.266   2.352   0.414  0.0000  0.0000  0.0000
  457CU      Cu  457   1.443   2.170   0.055  0.0000  0.0000  0.0000
  458CU      Cu  458   1.446   2.171   0.419  0.0000  0.0000  0.0000
  459CU      Cu  459   1.446   2.349   0.235  0.0000  0.0000  0.0000
  460CU      Cu  460   1.627   2.170   0.232  0.0000  0.0000  0.0000
  461CU      Cu  461   1.626   2.348   0.054  0.0000  0.0000  0.0000
  462CU      Cu  462   1.629   2.347   0.412  0.0000  0.0000  0.0000
  463CU      Cu  463   1.810   2.169   0.055  0.0000  0.0000  0.0000
  464CU      Cu  464   1.812   2.171   0.415  0.0000  0.0000  0.0000
  465CU      Cu  465   1.811   2.349   0.233  0.0000  0.0000  0.0000
  466CU      Cu  466   1.993   2.168   0.233  0.0000  0.0000  0.0000
  467CU      Cu  467   1.994   2.346   0.054  0.0000  0.0000  0.0000
  468CU      Cu  468   2.000   2.349   0.411  0.0000  0.0000  0.0000
  469CU      Cu  469   2.177   2.166   0.055  0.0000  0.0000  0.0000
  470CU      Cu  470   2.175   2.164   0.412  0.0000  0.0000  0.0000
  471CU      Cu  471   2.176   2.347   0.231  0.0000  0.0000  0.0000
  472CU      Cu  472   2.357   2.167   0.237  0.0000  0.0000  0.0000
  473CU      Cu  473   2.357   2.346   0.055  0.0000  0.0000  0.0000
  474CU      Cu  474   2.354   2.351   0.416  0.0000  0.0000  0.0000
  475CU      Cu  475   2.537   2.166   0.060  0.0000  0.0000  0.0000
  476CU      Cu  476   2.534   2.170   0.424  0.0000  0.0000  0.0000
  477CU      Cu  477   2.534   2.348   0.235  0.0000  0.0000  0.0000
  478CU      Cu  478   2.715   2.167   0.241  0.0000  0.0000  0.0000
  479CU      Cu  479   2.716   2.346   0.060  0.0000  0.0000  0.0000
  480CU      Cu  480   2.713   2.352   0.411  0.0000  0.0000  0.0000
  481CU      Cu  481   2.895   2.166   0.061  0.0000  0.0000  0.0000
  482CU      Cu  482   2.894   2.170   0.425  0.0000  0.0000  0.0000
  483CU      Cu  483   2.897   2.348   0.239  0.0000  0.0000  0.0000
  484CU      Cu  484   3.076   2.168   0.241  0.0000  0.0000  0.0000
  485CU      Cu  485   3.075   2.345   0.057  0.0000  0.0000  0.0000
  486CU      Cu  486   3.076   2.349   0.422  0.0000  0.0000  0.0000
  487CU      Cu  487   3.255   2.167   0.056  0.0000  0.0000  0.0000
  488CU      Cu  488   3.260   2.167   0.425  0.0000  0.0000  0.0000
  489CU      Cu  489   3.256   2.347   0.239  0.0000  0.0000  0.0000
  490CU      Cu  490   3.437   2.169   0.235  0.0000  0.0000  0.0000
  491CU      Cu  491   3.434   2.348   0.053  0.0000  0.0000  0.0000
  492CU      Cu  492   3.438   2.349   0.421  0.0000  0.0000  0.0000
  493CU      Cu  493   3.616   2.168   0.052  0.0000  0.0000  0.0000
  494CU      Cu  494   3.620   2.172   0.411  0.0000  0.0000  0.0000
  495CU      Cu  495   3.616   2.350   0.231  0.0000  0.0000  0.0000
  496CU      Cu  496   3.799   2.167   0.229  0.0000  0.0000  0.0000
  497CU      Cu  497   3.798   2.349   0.051  0.0000  0.0000  0.0000
  498CU      Cu  498   3.801   2.349   0.403  0.0000  0.0000  0.0000
  499CU      Cu  499   3.979   2.167   0.049  0.0000  0.0000  0.0000
  500CU      Cu  500   3.978   2.168   0.415  0.0000  0.0000  0.0000
  501CU      Cu  501   3.981   2.348   0.227  0.0000  0.0000  0.0000
  502CU      Cu  502   4.157   2.167   0.230  0.0000  0.0000  0.0000
  503CU      Cu  503   4.162   2.348   0.050  0.0000  0.0000  0.0000
  504CU      Cu  504   4.159   2.347   0.414  0.0000  0.0000  0.0000
  505CU      Cu  505   0.006   2.530   0.053  0.0000  0.0000  0.0000
  506CU      Cu  506   0.012   2.529   0.413  0.0000  0.0000  0.0000
  507CU      Cu  507   0.003   2.711   0.232  0.0000  0.0000  0.0000
  508CU      Cu  508   0.184   2.529   0.235  0.0000  0.0000  0.0000
  509CU      Cu  509   0.186   2.711   0.054  0.0000  0.0000  0.0000
  510CU      Cu  510   0.181   2.710   0.415  0.0000  0.0000  0.0000
  511CU      Cu  511   0.367   2.528   0.059  0.0000  0.0000  0.0000
  512CU      Cu  512   0.364   2.531   0.420  0.0000  0.0000  0.0000
  513CU      Cu  513   0.362   2.712   0.234  0.0000  0.0000  0.0000
  514CU      Cu  514   0.545   2.529   0.239  0.0000  0.0000  0.0000
  515CU      Cu  515   0.547   2.710   0.059  0.0000  0.0000  0.0000
  516CU      Cu  516   0.542   2.719   0.403  0.0000  0.0000  0.0000
  517CU      Cu  517   0.727   2.529   0.060  0.0000  0.0000  0.0000
  518CU      Cu  518   0.727   2.532   0.416  0.0000  0.0000  0.0000
  519CU      Cu  519   0.728   2.712   0.236  0.0000  0.0000  0.0000
  520CU      Cu  520   0.907   2.532   0.240  0.0000  0.0000  0.0000
  521CU      Cu  521   0.906   2.711   0.059  0.0000  0.0000  0.0000
  522CU      Cu  522   0.906   2.714   0.424  0.0000  0.0000  0.0000
  523CU      Cu  523   1.084   2.530   0.060  0.0000  0.0000  0.0000
  524CU      Cu  524   1.087   2.534   0.422  0.0000  0.0000  0.0000
  525CU      Cu  525   1.086   2.711   0.238  0.0000  0.0000  0.0000
  526CU      Cu  526   1.266   2.532   0.237  0.0000  0.0000  0.0000
  527CU      Cu  527   1.264   2.709   0.056  0.0000  0.0000  0.0000
  528CU      Cu  528   1.270   2.711   0.419  0.0000  0.0000  0.0000
  529CU      Cu  529   1.445   2.529   0.056  0.0000  0.0000  0.0000
  530CU      Cu  530   1.448   2.529   0.417  0.0000  0.0000  0.0000
  531CU      Cu  531   1.448   2.710   0.234  0.0000  0.0000  0.0000
  532CU      Cu  532   1.629   2.528   0.233  0.0000  0.0000  0.0000
  533CU      Cu  533   1.627   2.707   0.052  0.0000  0.0000  0.0000
  534CU      Cu  534   1.630   2.706   0.411  0.0000  0.0000  0.0000
  535CU      Cu  535   1.810   2.526   0.051  0.0000  0.0000  0.0000
  536CU      Cu  536   1.812   2.526   0.418  0.0000  0.0000  0.0000
  537CU      Cu  537   1.809   2.708   0.229  0.0000  0.0000  0.0000
  538CU      Cu  538   1.991   2.528   0.230  0.0000  0.0000  0.0000
  539CU      Cu  539   1.991   2.709   0.051  0.0000  0.0000  0.0000
  540CU      Cu  540   1.987   2.710   0.406  0.0000  0.0000  0.0000
  541CU      Cu  541   2.175   2.528   0.054  0.0000  0.0000  0.0000
  542CU      Cu  542   2.175   2.530   0.402  0.0000  0.0000  0.0000
  543CU      Cu  543   2.173   2.713   0.230  0.0000  0.0000  0.0000
  544CU      Cu  544   2.356   2.531   0.231  0.0000  0.0000  0.0000
  545CU      Cu  545   2.357   2.711   0.052  0.0000  0.0000  0.0000
  546CU      Cu  546   2.352   2.712   0.414  0.0000  0.0000  0.0000
  547CU      Cu  547   2.538   2.529   0.055  0.0000  0.0000  0.0000
  548CU      Cu  548   2.535   2.531   0.409  0.0000  0.0000  0.0000
  549CU      Cu  549   2.535   2.712   0.233  0.0000  0.0000  0.0000
  550CU      Cu  550   2.716   2.532   0.234  0.0000  0.0000  0.0000
  551CU      Cu  551   2.717   2.711   0.055  0.0000  0.0000  0.0000
  552CU      Cu  552   2.716   2.713   0.420  0.0000  0.0000  0.0000
  553CU      Cu  553   2.896   2.526   0.057  0.0000  0.0000  0.0000
  554CU      Cu  554   2.894   2.530   0.420  0.0000  0.0000  0.0000
  555CU      Cu  555   2.896   2.708   0.233  0.0000  0.0000  0.0000
  556CU      Cu  556   3.076   2.526   0.237  0.0000  0.0000  0.0000
  557CU      Cu  557   3.076   2.708   0.055  0.0000  0.0000  0.0000
  558CU      Cu  558   3.075   2.707   0.411  0.0000  0.0000  0.0000
  559CU      Cu  559   3.254   2.526   0.055  0.0000  0.0000  0.0000
  560CU      Cu  560   3.256   2.529   0.422  0.0000  0.0000  0.0000
  561CU      Cu  561   3.257   2.707   0.233  0.0000  0.0000  0.0000
  562CU      Cu  562   3.436   2.528   0.235  0.0000  0.0000  0.0000
  563CU      Cu  563   3.434   2.708   0.052  0.0000  0.0000  0.0000
  564CU      Cu  564   3.438   2.708   0.415  0.0000  0.0000  0.0000
  565CU      Cu  565   3.615   2.529   0.050  0.0000  0.0000  0.0000
  566CU      Cu  566   3.619   2.529   0.416  0.0000  0.0000  0.0000
  567CU      Cu  567   3.616   2.709   0.231  0.0000  0.0000  0.0000
  568CU      Cu  568   3.797   2.532   0.228  0.0000  0.0000  0.0000
  569CU      Cu  569   3.797   2.711   0.049  0.0000  0.0000  0.0000
  570CU      Cu  570   3.798   2.711   0.413  0.0000  0.0000  0.0000
  571CU      Cu  571   3.980   2.531   0.050  0.0000  0.0000  0.0000
  572CU      Cu  572   3.984   2.531   0.402  0.0000  0.0000  0.0000
  573CU      Cu  573   3.979   2.713   0.229  0.0000  0.0000  0.0000
  574CU      Cu  574   4.162   2.531   0.228  0.0000  0.0000  0.0000
  575CU      Cu  575   4.161   2.712   0.050  0.0000  0.0000  0.0000
  576CU      Cu  576   4.159   2.712   0.414  0.0000  0.0000  0.0000
  577CU      Cu  577   0.005   2.893   0.053  0.0000  0.0000  0.0000
  578CU      Cu  578   0.001   2.893   0.410  0.0000  0.0000  0.0000
  579CU      Cu  579   0.002   3.074   0.233  0.0000  0.0000  0.0000
  580CU      Cu  580   0.184   2.893   0.233  0.0000  0.0000  0.0000
  581CU      Cu  581   0.186   3.074   0.053  0.0000  0.0000  0.0000
  582CU      Cu  582   0.183   3.073   0.415  0.0000  0.0000  0.0000
  583CU      Cu  583   0.366   2.893   0.054  0.0000  0.0000  0.0000
  584CU      Cu  584   0.361   2.893   0.419  0.0000  0.0000  0.0000
  585CU      Cu  585   0.365   3.073   0.234  0.0000  0.0000  0.0000
  586CU      Cu  586   0.545   2.897   0.233  0.0000  0.0000  0.0000
  587CU      Cu  587   0.549   3.075   0.055  0.0000  0.0000  0.0000
  588CU      Cu  588   0.544   3.072   0.422  0.0000  0.0000  0.0000
  589CU      Cu  589   0.727   2.893   0.058  0.0000  0.0000  0.0000
  590CU      Cu  590   0.727   2.894   0.413  0.0000  0.0000  0.0000
  591CU      Cu  591   0.727   3.075   0.239  0.0000  0.0000  0.0000
  592CU      Cu  592   0.907   2.893   0.238  0.0000  0.0000  0.0000
  593CU      Cu  593   0.907   3.073   0.058  0.0000  0.0000  0.0000
  594CU      Cu  594   0.910   3.074   0.423  0.0000  0.0000  0.0000
  595CU      Cu  595   1.085   2.891   0.058  0.0000  0.0000  0.0000
  596CU      Cu  596   1.090   2.891   0.413  0.0000  0.0000  0.0000
  597CU      Cu  597   1.088   3.072   0.236  0.0000  0.0000  0.0000
  598CU      Cu  598   1.269   2.890   0.234  0.0000  0.0000  0.0000
  599CU      Cu  599   1.265   3.071   0.054  0.0000  0.0000  0.0000
  600CU      Cu  600   1.272   3.068   0.414  0.0000  0.0000  0.0000
  601CU      Cu  601   1.446   2.889   0.052  0.0000  0.0000  0.0000
  602CU      Cu  602   1.453   2.889   0.419  0.0000  0.0000  0.0000
  603CU      Cu  603   1.449   3.069   0.231  0.0000  0.0000  0.0000
  604CU      Cu  604   1.629   2.890   0.231  0.0000  0.0000  0.0000
  605CU      Cu  605   1.628   3.070   0.050  0.0000  0.0000  0.0000
  606CU      Cu  606   1.631   3.073   0.412  0.0000  0.0000  0.0000
  607CU      Cu  607   1.809   2.889   0.051  0.0000  0.0000  0.0000
  608CU      Cu  608   1.810   2.892   0.410  0.0000  0.0000  0.0000
  609CU      Cu  609   1.810   3.072   0.229  0.0000  0.0000  0.0000
  610CU      Cu  610   1.991   2.892   0.229  0.0000  0.0000  0.0000
  611CU      Cu  611   1.992   3.070   0.048  0.0000  0.0000  0.0000
  612CU      Cu  612   1.991   3.072   0.414  0.0000  0.0000  0.0000
  613CU      Cu  613   2.174   2.890   0.049  0.0000  0.0000  0.0000
  614CU      Cu  614   2.170   2.890   0.417  0.0000  0.0000  0.0000
  615CU      Cu  615   2.173   3.069   0.230  0.0000  0.0000  0.0000
  616CU      Cu  616   2.353   2.891   0.233  0.0000  0.0000  0.0000
  617CU      Cu  617   2.357   3.070   0.052  0.0000  0.0000  0.0000
  618CU      Cu  618   2.352   3.070   0.418  0.0000  0.0000  0.0000
  619CU      Cu  619   2.537   2.892   0.054  0.0000  0.0000  0.0000
  620CU      Cu  620   2.533   2.891   0.413  0.0000  0.0000  0.0000
  621CU      Cu  621   2.536   3.071   0.235  0.0000  0.0000  0.0000
  622CU      Cu  622   2.716   2.891   0.235  0.0000  0.0000  0.0000
  623CU      Cu  623   2.718   3.072   0.056  0.0000  0.0000  0.0000
  624CU      Cu  624   2.717   3.069   0.421  0.0000  0.0000  0.0000
  625CU      Cu  625   2.898   2.891   0.057  0.0000  0.0000  0.0000
  626CU      Cu  626   2.902   2.891   0.403  0.0000  0.0000  0.0000
  627CU      Cu  627   2.898   3.074   0.236  0.0000  0.0000  0.0000
  628CU      Cu  628   3.080   2.891   0.231  0.0000  0.0000  0.0000
  629CU      Cu  629   3.076   3.074   0.055  0.0000  0.0000  0.0000
  630CU      Cu  630   3.085   3.070   0.415  0.0000  0.0000  0.0000
  631CU      Cu  631   3.256   2.890   0.052  0.0000  0.0000  0.0000
  632CU      Cu  632   3.259   2.885   0.412  0.0000  0.0000  0.0000
  633CU      Cu  633   3.257   3.073   0.233  0.0000  0.0000  0.0000
  634CU      Cu  634   3.436   2.890   0.231  0.0000  0.0000  0.0000
  635CU      Cu  635   3.435   3.073   0.052  0.0000  0.0000  0.0000
  636CU      Cu  636   3.436   3.071   0.413  0.0000  0.0000  0.0000
  637CU      Cu  637   3.615   2.891   0.051  0.0000  0.0000  0.0000
  638CU      Cu  638   3.617   2.891   0.411  0.0000  0.0000  0.0000
  639CU      Cu  639   3.616   3.072   0.231  0.0000  0.0000  0.0000
  640CU      Cu  640   3.797   2.891   0.230  0.0000  0.0000  0.0000
  641CU      Cu  641   3.797   3.073   0.053  0.0000  0.0000  0.0000
  642CU      Cu  642   3.796   3.070   0.410  0.0000  0.0000  0.0000
  643CU      Cu  643   3.979   2.894   0.051  0.0000  0.0000  0.0000
  644CU      Cu  644   3.978   2.892   0.416  0.0000  0.0000  0.0000
  645CU      Cu  645   3.978   3.072   0.234  0.0000  0.0000  0.0000
  646CU      Cu  646   4.159   2.893   0.232  0.0000  0.0000  0.0000
  647CU      Cu  647   4.160   3.073   0.053  0.0000  0.0000  0.0000
  648CU      Cu  648   4.159   3.073   0.418  0.0000  0.0000  0.0000
  649CU      Cu  649   0.003   3.253   0.053  0.0000  0.0000  0.0000
  650CU      Cu  650   0.003   3.254   0.415  0.0000  0.0000  0.0000
  651CU      Cu  651   0.001   3.433   0.232  0.0000  0.0000  0.0000
  652CU      Cu  652   0.184   3.253   0.232  0.0000  0.0000  0.0000
  653CU      Cu  653   0.186   3.433   0.054  0.0000  0.0000  0.0000
  654CU      Cu  654   0.181   3.436   0.407  0.0000  0.0000  0.0000
  655CU      Cu  655   0.368   3.254   0.055  0.0000  0.0000  0.0000
  656CU      Cu  656   0.364   3.253   0.413  0.0000  0.0000  0.0000
  657CU      Cu  657   0.367   3.434   0.235  0.0000  0.0000  0.0000
  658CU      Cu  658   0.547   3.253   0.238  0.0000  0.0000  0.0000
  659CU      Cu  659   0.550   3.435   0.058  0.0000  0.0000  0.0000
  660CU      Cu  660   0.544   3.433   0.423  0.0000  0.0000  0.0000
  661CU      Cu  661   0.729   3.255   0.059  0.0000  0.0000  0.0000
  662CU      Cu  662   0.726   3.253   0.424  0.0000  0.0000  0.0000
  663CU      Cu  663   0.727   3.434   0.242  0.0000  0.0000  0.0000
  664CU      Cu  664   0.908   3.253   0.240  0.0000  0.0000  0.0000
  665CU      Cu  665   0.907   3.435   0.060  0.0000  0.0000  0.0000
  666CU      Cu  666   0.911   3.431   0.423  0.0000  0.0000  0.0000
  667CU      Cu  667   1.085   3.254   0.057  0.0000  0.0000  0.0000
  668CU      Cu  668   1.096   3.252   0.415  0.0000  0.0000  0.0000
  669CU      Cu  669   1.088   3.435   0.238  0.0000  0.0000  0.0000
  670CU      Cu  670   1.268   3.253   0.232  0.0000  0.0000  0.0000
  671CU      Cu  671   1.265   3.436   0.055  0.0000  0.0000  0.0000
  672CU      Cu  672   1.272   3.436   0.415  0.0000  0.0000  0.0000
  673CU      Cu  673   1.446   3.252   0.052  0.0000  0.0000  0.0000
  674CU      Cu  674   1.449   3.252   0.406  0.0000  0.0000  0.0000
  675CU      Cu  675   1.448   3.435   0.230  0.0000  0.0000  0.0000
  676CU      Cu  676   1.630   3.251   0.228  0.0000  0.0000  0.0000
  677CU      Cu  677   1.627   3.435   0.049  0.0000  0.0000  0.0000
  678CU      Cu  678   1.633   3.433   0.404  0.0000  0.0000  0.0000
  679CU      Cu  679   1.810   3.252   0.047  0.0000  0.0000  0.0000
  680CU      Cu  680   1.813   3.255   0.412  0.0000  0.0000  0.0000
  681CU      Cu  681   1.809   3.433   0.223  0.0000  0.0000  0.0000
  682CU      Cu  682   1.992   3.250   0.226  0.0000  0.0000  0.0000
  683CU      Cu  683   1.996   3.435   0.051  0.0000  0.0000  0.0000
  684CU      Cu  684   1.992   3.439   0.391  0.0000  0.0000  0.0000
  685CU      Cu  685   2.176   3.251   0.051  0.0000  0.0000  0.0000
  686CU      Cu  686   2.173   3.251   0.404  0.0000  0.0000  0.0000
  687CU      Cu  687   2.179   3.434   0.226  0.0000  0.0000  0.0000
  688CU      Cu  688   2.357   3.249   0.231  0.0000  0.0000  0.0000
  689CU      Cu  689   2.360   3.433   0.052  0.0000  0.0000  0.0000
  690CU      Cu  690   2.355   3.427   0.412  0.0000  0.0000  0.0000
  691CU      Cu  691   2.539   3.251   0.054  0.0000  0.0000  0.0000
  692CU      Cu  692   2.535   3.249   0.420  0.0000  0.0000  0.0000
  693CU      Cu  693   2.536   3.432   0.236  0.0000  0.0000  0.0000
  694CU      Cu  694   2.716   3.251   0.239  0.0000  0.0000  0.0000
  695CU      Cu  695   2.716   3.433   0.057  0.0000  0.0000  0.0000
  696CU      Cu  696   2.715   3.432   0.419  0.0000  0.0000  0.0000
  697CU      Cu  697   2.895   3.254   0.057  0.0000  0.0000  0.0000
  698CU      Cu  698   2.898   3.250   0.424  0.0000  0.0000  0.0000
  699CU      Cu  699   2.895   3.433   0.240  0.0000  0.0000  0.0000
  700CU      Cu  700   3.076   3.254   0.238  0.0000  0.0000  0.0000
  701CU      Cu  701   3.072   3.435   0.057  0.0000  0.0000  0.0000
  702CU      Cu  702   3.076   3.436   0.422  0.0000  0.0000  0.0000
  703CU      Cu  703   3.254   3.255   0.054  0.0000  0.0000  0.0000
  704CU      Cu  704   3.259   3.258   0.414  0.0000  0.0000  0.0000
  705CU      Cu  705   3.254   3.435   0.234  0.0000  0.0000  0.0000
  706CU      Cu  706   3.436   3.253   0.232  0.0000  0.0000  0.0000
  707CU      Cu  707   3.435   3.434   0.054  0.0000  0.0000  0.0000
  708CU      Cu  708   3.439   3.434   0.410  0.0000  0.0000  0.0000
  709CU      Cu  709   3.616   3.253   0.053  0.0000  0.0000  0.0000
  710CU      Cu  710   3.617   3.252   0.416  0.0000  0.0000  0.0000
  711CU      Cu  711   3.618   3.432   0.231  0.0000  0.0000  0.0000
  712CU      Cu  712   3.798   3.252   0.234  0.0000  0.0000  0.0000
  713CU      Cu  713   3.799   3.432   0.053  0.0000  0.0000  0.0000
  714CU      Cu  714   3.797   3.434   0.416  0.0000  0.0000  0.0000
  715CU      Cu  715   3.978   3.252   0.054  0.0000  0.0000  0.0000
  716CU      Cu  716   3.976   3.251   0.419  0.0000  0.0000  0.0000
  717CU      Cu  717   3.979   3.431   0.234  0.0000  0.0000  0.0000
  718CU      Cu  718   4.158   3.252   0.235  0.0000  0.0000  0.0000
  719CU      Cu  719   4.159   3.431   0.053  0.0000  0.0000  0.0000
  720CU      Cu  720   4.158   3.433   0.418  0.0000  0.0000  0.0000
  721CU      Cu  721   0.003   3.612   0.052  0.0000  0.0000  0.0000
  722CU      Cu  722   0.000   3.614   0.415  0.0000  0.0000  0.0000
  723CU      Cu  723   0.001   3.794   0.228  0.0000  0.0000  0.0000
  724CU      Cu  724   0.183   3.614   0.231  0.0000  0.0000  0.0000
  725CU      Cu  725   0.187   3.795   0.054  0.0000  0.0000  0.0000
  726CU      Cu  726   0.177   3.794   0.408  0.0000  0.0000  0.0000
  727CU      Cu  727   0.369   3.615   0.056  0.0000  0.0000  0.0000
  728CU      Cu  728   0.362   3.613   0.417  0.0000  0.0000  0.0000
  729CU      Cu  729   0.366   3.794   0.237  0.0000  0.0000  0.0000
  730CU      Cu  730   0.547   3.614   0.240  0.0000  0.0000  0.0000
  731CU      Cu  731   0.549   3.795   0.060  0.0000  0.0000  0.0000
  732CU      Cu  732   0.543   3.794   0.424  0.0000  0.0000  0.0000
  733CU      Cu  733   0.728   3.615   0.061  0.0000  0.0000  0.0000
  734CU      Cu  734   0.726   3.613   0.426  0.0000  0.0000  0.0000
  735CU      Cu  735   0.726   3.795   0.243  0.0000  0.0000  0.0000
  736CU      Cu  736   0.906   3.615   0.242  0.0000  0.0000  0.0000
  737CU      Cu  737   0.905   3.796   0.060  0.0000  0.0000  0.0000
  738CU      Cu  738   0.906   3.794   0.426  0.0000  0.0000  0.0000
  739CU      Cu  739   1.084   3.616   0.058  0.0000  0.0000  0.0000
  740CU      Cu  740   1.088   3.614   0.422  0.0000  0.0000  0.0000
  741CU      Cu  741   1.084   3.796   0.240  0.0000  0.0000  0.0000
  742CU      Cu  742   1.266   3.616   0.236  0.0000  0.0000  0.0000
  743CU      Cu  743   1.263   3.798   0.057  0.0000  0.0000  0.0000
  744CU      Cu  744   1.268   3.797   0.416  0.0000  0.0000  0.0000
  745CU      Cu  745   1.444   3.618   0.053  0.0000  0.0000  0.0000
  746CU      Cu  746   1.451   3.615   0.414  0.0000  0.0000  0.0000
  747CU      Cu  747   1.447   3.797   0.234  0.0000  0.0000  0.0000
  748CU      Cu  748   1.628   3.616   0.228  0.0000  0.0000  0.0000
  749CU      Cu  749   1.627   3.799   0.053  0.0000  0.0000  0.0000
  750CU      Cu  750   1.631   3.796   0.410  0.0000  0.0000  0.0000
  751CU      Cu  751   1.812   3.618   0.051  0.0000  0.0000  0.0000
  752CU      Cu  752   1.815   3.615   0.400  0.0000  0.0000  0.0000
  753CU      Cu  753   1.812   3.798   0.229  0.0000  0.0000  0.0000
  754CU      Cu  754   1.997   3.620   0.225  0.0000  0.0000  0.0000
  755CU      Cu  755   1.995   3.800   0.050  0.0000  0.0000  0.0000
  756CU      Cu  756   1.995   3.793   0.416  0.0000  0.0000  0.0000
  757CU      Cu  757   2.180   3.618   0.050  0.0000  0.0000  0.0000
  758CU      Cu  758   2.181   3.612   0.411  0.0000  0.0000  0.0000
  759CU      Cu  759   2.177   3.798   0.233  0.0000  0.0000  0.0000
  760CU      Cu  760   2.358   3.615   0.233  0.0000  0.0000  0.0000
  761CU      Cu  761   2.359   3.798   0.055  0.0000  0.0000  0.0000
  762CU      Cu  762   2.355   3.800   0.414  0.0000  0.0000  0.0000
  763CU      Cu  763   2.538   3.615   0.056  0.0000  0.0000  0.0000
  764CU      Cu  764   2.534   3.613   0.419  0.0000  0.0000  0.0000
  765CU      Cu  765   2.536   3.797   0.237  0.0000  0.0000  0.0000
  766CU      Cu  766   2.715   3.615   0.239  0.0000  0.0000  0.0000
  767CU      Cu  767   2.714   3.796   0.056  0.0000  0.0000  0.0000
  768CU      Cu  768   2.712   3.796   0.423  0.0000  0.0000  0.0000
  769CU      Cu  769   2.892   3.614   0.057  0.0000  0.0000  0.0000
  770CU      Cu  770   2.894   3.616   0.423  0.0000  0.0000  0.0000
  771CU      Cu  771   2.891   3.796   0.238  0.0000  0.0000  0.0000
  772CU      Cu  772   3.072   3.615   0.237  0.0000  0.0000  0.0000
  773CU      Cu  773   3.070   3.795   0.056  0.0000  0.0000  0.0000
  774CU      Cu  774   3.075   3.799   0.414  0.0000  0.0000  0.0000
  775CU      Cu  775   3.251   3.615   0.055  0.0000  0.0000  0.0000
  776CU      Cu  776   3.258   3.616   0.412  0.0000  0.0000  0.0000
  777CU      Cu  777   3.253   3.796   0.232  0.0000  0.0000  0.0000
  778CU      Cu  778   3.435   3.615   0.230  0.0000  0.0000  0.0000
  779CU      Cu  779   3.432   3.795   0.052  0.0000  0.0000  0.0000
  780CU      Cu  780   3.437   3.798   0.409  0.0000  0.0000  0.0000
  781CU      Cu  781   3.617   3.613   0.053  0.0000  0.0000  0.0000
  782CU      Cu  782   3.622   3.617   0.402  0.0000  0.0000  0.0000
  783CU      Cu  783   3.616   3.797   0.226  0.0000  0.0000  0.0000
  784CU      Cu  784   3.801   3.613   0.228  0.0000  0.0000  0.0000
  785CU      Cu  785   3.798   3.794   0.050  0.0000  0.0000  0.0000
  786CU      Cu  786   3.802   3.798   0.401  0.0000  0.0000  0.0000
  787CU      Cu  787   3.981   3.612   0.051  0.0000  0.0000  0.0000
  788CU      Cu  788   3.978   3.614   0.413  0.0000  0.0000  0.0000
  789CU      Cu  789   3.981   3.795   0.227  0.0000  0.0000  0.0000
  790CU      Cu  790   4.159   3.612   0.232  0.0000  0.0000  0.0000
  791CU      Cu  791   4.161   3.794   0.050  0.0000  0.0000  0.0000
  792CU      Cu  792   4.159   3.796   0.409  0.0000  0.0000  0.0000
  793CU      Cu  793   0.006   3.975   0.051  0.0000  0.0000  0.0000
  794CU      Cu  794   0.012   3.975   0.408  0.0000  0.0000  0.0000
  795CU      Cu  795   0.003   4.156   0.229  0.0000  0.0000  0.0000
  796CU      Cu  796   0.184   3.976   0.232  0.0000  0.0000  0.0000
  797CU      Cu  797   0.190   4.155   0.055  0.0000  0.0000  0.0000
  798CU      Cu  798   0.179   4.157   0.414  0.0000  0.0000  0.0000
  799CU      Cu  799   0.369   3.975   0.059  0.0000  0.0000  0.0000
  800CU      Cu  800   0.360   3.976   0.418  0.0000  0.0000  0.0000
  801CU      Cu  801   0.366   4.155   0.238  0.0000  0.0000  0.0000
  802CU      Cu  802   0.546   3.975   0.242  0.0000  0.0000  0.0000
  803CU      Cu  803   0.549   4.155   0.061  0.0000  0.0000  0.0000
  804CU      Cu  804   0.542   4.156   0.426  0.0000  0.0000  0.0000
  805CU      Cu  805   0.726   3.976   0.061  0.0000  0.0000  0.0000
  806CU      Cu  806   0.724   3.975   0.427  0.0000  0.0000  0.0000
  807CU      Cu  807   0.726   4.156   0.244  0.0000  0.0000  0.0000
  808CU      Cu  808   0.905   3.976   0.243  0.0000  0.0000  0.0000
  809CU      Cu  809   0.904   4.156   0.061  0.0000  0.0000  0.0000
  810CU      Cu  810   0.905   4.156   0.427  0.0000  0.0000  0.0000
  811CU      Cu  811   1.083   3.977   0.059  0.0000  0.0000  0.0000
  812CU      Cu  812   1.086   3.975   0.425  0.0000  0.0000  0.0000
  813CU      Cu  813   1.084   4.157   0.242  0.0000  0.0000  0.0000
  814CU      Cu  814   1.265   3.978   0.239  0.0000  0.0000  0.0000
  815CU      Cu  815   1.262   4.156   0.058  0.0000  0.0000  0.0000
  816CU      Cu  816   1.267   4.156   0.425  0.0000  0.0000  0.0000
  817CU      Cu  817   1.443   3.977   0.055  0.0000  0.0000  0.0000
  818CU      Cu  818   1.449   3.976   0.420  0.0000  0.0000  0.0000
  819CU      Cu  819   1.445   4.156   0.238  0.0000  0.0000  0.0000
  820CU      Cu  820   1.627   3.977   0.233  0.0000  0.0000  0.0000
  821CU      Cu  821   1.624   4.156   0.055  0.0000  0.0000  0.0000
  822CU      Cu  822   1.630   4.155   0.419  0.0000  0.0000  0.0000
  823CU      Cu  823   1.809   3.978   0.053  0.0000  0.0000  0.0000
  824CU      Cu  824   1.811   3.973   0.410  0.0000  0.0000  0.0000
  825CU      Cu  825   1.807   4.157   0.232  0.0000  0.0000  0.0000
  826CU      Cu  826   1.993   3.975   0.232  0.0000  0.0000  0.0000
  827CU      Cu  827   1.992   4.157   0.054  0.0000  0.0000  0.0000
  828CU      Cu  828   1.990   4.155   0.406  0.0000  0.0000  0.0000
  829CU      Cu  829   2.177   3.978   0.053  0.0000  0.0000  0.0000
  830CU      Cu  830   2.172   3.977   0.419  0.0000  0.0000  0.0000
  831CU      Cu  831   2.174   4.156   0.232  0.0000  0.0000  0.0000
  832CU      Cu  832   2.355   3.979   0.236  0.0000  0.0000  0.0000
  833CU      Cu  833   2.357   4.159   0.054  0.0000  0.0000  0.0000
  834CU      Cu  834   2.350   4.159   0.421  0.0000  0.0000  0.0000
  835CU      Cu  835   2.537   3.979   0.055  0.0000  0.0000  0.0000
  836CU      Cu  836   2.533   3.979   0.422  0.0000  0.0000  0.0000
  837CU      Cu  837   2.534   4.159   0.238  0.0000  0.0000  0.0000
  838CU      Cu  838   2.713   3.978   0.239  0.0000  0.0000  0.0000
  839CU      Cu  839   2.714   4.159   0.056  0.0000  0.0000  0.0000
  840CU      Cu  840   2.713   4.159   0.423  0.0000  0.0000  0.0000
  841CU      Cu  841   2.891   3.977   0.056  0.0000  0.0000  0.0000
  842CU      Cu  842   2.893   3.976   0.422  0.0000  0.0000  0.0000
  843CU      Cu  843   2.891   4.159   0.238  0.0000  0.0000  0.0000
  844CU      Cu  844   3.070   3.978   0.234  0.0000  0.0000  0.0000
  845CU      Cu  845   3.068   4.159   0.055  0.0000  0.0000  0.0000
  846CU      Cu  846   3.072   4.156   0.419  0.0000  0.0000  0.0000
  847CU      Cu  847   3.248   3.977   0.053  0.0000  0.0000  0.0000
  848CU      Cu  848   3.254   3.979   0.407  0.0000  0.0000  0.0000
  849CU      Cu  849   3.249   4.160   0.232  0.0000  0.0000  0.0000
  850CU      Cu  850   3.433   3.978   0.228  0.0000  0.0000  0.0000
  851CU      Cu  851   3.427   4.160   0.052  0.0000  0.0000  0.0000
  852CU      Cu  852   3.434   4.161   0.406  0.0000  0.0000  0.0000
  853CU      Cu  853   3.612   3.978   0.050  0.0000  0.0000  0.0000
  854CU      Cu  854   3.620   3.979   0.400  0.0000  0.0000  0.0000
  855CU      Cu  855   3.612   4.160   0.225  0.0000  0.0000  0.0000
  856CU      Cu  856   3.799   3.977   0.223  0.0000  0.0000  0.0000
  857CU      Cu  857   3.793   4.159   0.047  0.0000  0.0000  0.0000
  858CU      Cu  858   3.798   4.158   0.399  0.0000  0.0000  0.0000
  859CU      Cu  859   3.979   3.975   0.046  0.0000  0.0000  0.0000
  860CU      Cu  860   3.978   3.979   0.409  0.0000  0.0000  0.0000
  861CU      Cu  861   3.979   4.157   0.222  0.0000  0.0000  0.0000
  862CU      Cu  862   4.159   3.977   0.227  0.0000  0.0000  0.0000
  863CU      Cu  863   4.162   4.155   0.045  0.0000  0.0000  0.0000
  864CU      Cu  864   4.157   4.158   0.411  0.0000  0.0000  0.0000
  865CU      Cu  865   0.002   0.011   7.946  0.0000  0.0000  0.0000
  866CU      Cu  866   0.006   0.011   8.305  0.0000  0.0000  0.0000
  867CU      Cu  867   0.010   0.179   8.125  0.0000  0.0000  0.0000
  868CU      Cu  868   0.178   0.010   8.133  0.0000  0.0000  0.0000
  869CU      Cu  869   0.186   0.179   7.955  0.0000  0.0000  0.0000
  870CU      Cu  870   0.173   0.179   8.310  0.0000  0.0000  0.0000
  871CU      Cu  871   0.361   0.009   7.961  0.0000  0.0000  0.0000
  872CU      Cu  872   0.357   0.010   8.316  0.0000  0.0000  0.0000
  873CU      Cu  873   0.360   0.179   8.139  0.0000  0.0000  0.0000
  874CU      Cu  874   0.542   0.010   8.142  0.0000  0.0000  0.0000
  875CU      Cu  875   0.541   0.174   7.966  0.0000  0.0000  0.0000
  876CU      Cu  876   0.542   0.182   8.316  0.0000  0.0000  0.0000
  877CU      Cu  877   0.720   0.012   7.958  0.0000  0.0000  0.0000
  878CU      Cu  878   0.725   0.000   8.316  0.0000  0.0000  0.0000
  879CU      Cu  879   0.725   0.181   8.136  0.0000  0.0000  0.0000
  880CU      Cu  880   0.905   0.001   8.132  0.0000  0.0000  0.0000
  881CU      Cu  881   0.902   0.181   7.947  0.0000  0.0000  0.0000
  882CU      Cu  882   0.906   0.182   8.314  0.0000  0.0000  0.0000
  883CU      Cu  883   1.082   0.001   7.945  0.0000  0.0000  0.0000
  884CU      Cu  884   1.086   0.003   8.312  0.0000  0.0000  0.0000
  885CU      Cu  885   1.085   0.182   8.129  0.0000  0.0000  0.0000
  886CU      Cu  886   1.264   0.003   8.129  0.0000  0.0000  0.0000
  887CU      Cu  887   1.265   0.181   7.943  0.0000  0.0000  0.0000
  888CU      Cu  888   1.267   0.183   8.310  0.0000  0.0000  0.0000
  889CU      Cu  889   1.446   0.000   7.943  0.0000  0.0000  0.0000
  890CU      Cu  890   1.448   0.005   8.311  0.0000  0.0000  0.0000
  891CU      Cu  891   1.447   0.182   8.125  0.0000  0.0000  0.0000
  892CU      Cu  892   1.628   0.003   8.127  0.0000  0.0000  0.0000
  893CU      Cu  893   1.627   0.180   7.940  0.0000  0.0000  0.0000
  894CU      Cu  894   1.629   0.184   8.307  0.0000  0.0000  0.0000
  895CU      Cu  895   1.810   0.002   7.945  0.0000  0.0000  0.0000
  896CU      Cu  896   1.809   0.003   8.307  0.0000  0.0000  0.0000
  897CU      Cu  897   1.807   0.182   8.126  0.0000  0.0000  0.0000
  898CU      Cu  898   1.990   0.011   8.128  0.0000  0.0000  0.0000
  899CU      Cu  899   1.992   0.181   7.956  0.0000  0.0000  0.0000
  900CU      Cu  900   1.989   0.183   8.304  0.0000  0.0000  0.0000
  901CU      Cu  901   2.170   0.012   7.944  0.0000  0.0000  0.0000
  902CU      Cu  902   2.169   0.012   8.309  0.0000  0.0000  0.0000
  903CU      Cu  903   2.172   0.180   8.129  0.0000  0.0000  0.0000
  904CU      Cu  904   2.349   0.012   8.128  0.0000  0.0000  0.0000
  905CU      Cu  905   2.349   0.182   7.943  0.0000  0.0000  0.0000
  906CU      Cu  906   2.348   0.180   8.310  0.0000  0.0000  0.0000
  907CU      Cu  907   2.528   0.012   7.947  0.0000  0.0000  0.0000
  908CU      Cu  908   2.528   0.010   8.309  0.0000  0.0000  0.0000
  909CU      Cu  909   2.528   0.180   8.128  0.0000  0.0000  0.0000
  910CU      Cu  910   2.709   0.011   8.128  0.0000  0.0000  0.0000
  911CU      Cu  911   2.710   0.180   7.945  0.0000  0.0000  0.0000
  912CU      Cu  912   2.707   0.176   8.311  0.0000  0.0000  0.0000
  913CU      Cu  913   2.892   0.012   7.945  0.0000  0.0000  0.0000
  914CU      Cu  914   2.889   0.009   8.311  0.0000  0.0000  0.0000
  915CU      Cu  915   2.890   0.177   8.131  0.0000  0.0000  0.0000
  916CU      Cu  916   3.072   0.011   8.131  0.0000  0.0000  0.0000
  917CU      Cu  917   3.074   0.178   7.954  0.0000  0.0000  0.0000
  918CU      Cu  918   3.072   0.175   8.313  0.0000  0.0000  0.0000
  919CU      Cu  919   3.255   0.012   7.946  0.0000  0.0000  0.0000
  920CU      Cu  920   3.256   0.010   8.312  0.0000  0.0000  0.0000
  921CU      Cu  921   3.255   0.177   8.134  0.0000  0.0000  0.0000
  922CU      Cu  922   3.437   0.011   8.129  0.0000  0.0000  0.0000
  923CU      Cu  923   3.436   0.181   7.950  0.0000  0.0000  0.0000
  924CU      Cu  924   3.440   0.177   8.311  0.0000  0.0000  0.0000
  925CU      Cu  925   3.618   0.000   7.948  0.0000  0.0000  0.0000
  926CU      Cu  926   3.622   0.010   8.306  0.0000  0.0000  0.0000
  927CU      Cu  927   3.617   0.179   8.131  0.0000  0.0000  0.0000
  928CU      Cu  928   3.799   0.010   8.124  0.0000  0.0000  0.0000
  929CU      Cu  929   3.796   0.182   7.954  0.0000  0.0000  0.0000
  930CU      Cu  930   3.802   0.179   8.302  0.0000  0.0000  0.0000
  931CU      Cu  931   3.975   0.000   7.937  0.0000  0.0000  0.0000
  932CU      Cu  932   3.978   0.011   8.301  0.0000  0.0000  0.0000
  933CU      Cu  933   3.980   0.180   8.122  0.0000  0.0000  0.0000
  934CU      Cu  934   4.156   0.011   8.120  0.0000  0.0000  0.0000
  935CU      Cu  935   4.158   0.181   7.938  0.0000  0.0000  0.0000
  936CU      Cu  936   4.155   0.179   8.301  0.0000  0.0000  0.0000
  937CU      Cu  937   0.003   0.364   7.949  0.0000  0.0000  0.0000
  938CU      Cu  938   0.007   0.361   8.304  0.0000  0.0000  0.0000
  939CU      Cu  939   0.008   0.542   8.130  0.0000  0.0000  0.0000
  940CU      Cu  940   0.180   0.358   8.135  0.0000  0.0000  0.0000
  941CU      Cu  941   0.182   0.540   7.968  0.0000  0.0000  0.0000
  942CU      Cu  942   0.177   0.543   8.307  0.0000  0.0000  0.0000
  943CU      Cu  943   0.362   0.360   7.954  0.0000  0.0000  0.0000
  944CU      Cu  944   0.359   0.362   8.313  0.0000  0.0000  0.0000
  945CU      Cu  945   0.365   0.543   8.134  0.0000  0.0000  0.0000
  946CU      Cu  946   0.543   0.362   8.135  0.0000  0.0000  0.0000
  947CU      Cu  947   0.542   0.541   7.946  0.0000  0.0000  0.0000
  948CU      Cu  948   0.542   0.543   8.313  0.0000  0.0000  0.0000
  949CU      Cu  949   0.721   0.360   7.949  0.0000  0.0000  0.0000
  950CU      Cu  950   0.723   0.362   8.314  0.0000  0.0000  0.0000
  951CU      Cu  951   0.722   0.541   8.132  0.0000  0.0000  0.0000
  952CU      Cu  952   0.904   0.360   8.132  0.0000  0.0000  0.0000
  953CU      Cu  953   0.906   0.539   7.957  0.0000  0.0000  0.0000
  954CU      Cu  954   0.904   0.542   8.312  0.0000  0.0000  0.0000
  955CU      Cu  955   1.085   0.361   7.947  0.0000  0.0000  0.0000
  956CU      Cu  956   1.087   0.363   8.311  0.0000  0.0000  0.0000
  957CU      Cu  957   1.087   0.542   8.132  0.0000  0.0000  0.0000
  958CU      Cu  958   1.267   0.361   8.128  0.0000  0.0000  0.0000
  959CU      Cu  959   1.267   0.543   7.953  0.0000  0.0000  0.0000
  960CU      Cu  960   1.270   0.542   8.309  0.0000  0.0000  0.0000
  961CU      Cu  961   1.446   0.362   7.941  0.0000  0.0000  0.0000
  962CU      Cu  962   1.450   0.362   8.307  0.0000  0.0000  0.0000
  963CU      Cu  963   1.450   0.542   8.126  0.0000  0.0000  0.0000
  964CU      Cu  964   1.628   0.362   8.123  0.0000  0.0000  0.0000
  965CU      Cu  965   1.628   0.542   7.939  0.0000  0.0000  0.0000
  966CU      Cu  966   1.630   0.542   8.304  0.0000  0.0000  0.0000
  967CU      Cu  967   1.810   0.360   7.940  0.0000  0.0000  0.0000
  968CU      Cu  968   1.809   0.363   8.305  0.0000  0.0000  0.0000
  969CU      Cu  969   1.808   0.543   8.122  0.0000  0.0000  0.0000
  970CU      Cu  970   1.988   0.365   8.127  0.0000  0.0000  0.0000
  971CU      Cu  971   1.989   0.543   7.939  0.0000  0.0000  0.0000
  972CU      Cu  972   1.988   0.544   8.306  0.0000  0.0000  0.0000
  973CU      Cu  973   2.168   0.362   7.950  0.0000  0.0000  0.0000
  974CU      Cu  974   2.168   0.363   8.306  0.0000  0.0000  0.0000
  975CU      Cu  975   2.169   0.544   8.125  0.0000  0.0000  0.0000
  976CU      Cu  976   2.350   0.361   8.127  0.0000  0.0000  0.0000
  977CU      Cu  977   2.351   0.543   7.944  0.0000  0.0000  0.0000
  978CU      Cu  978   2.346   0.542   8.309  0.0000  0.0000  0.0000
  979CU      Cu  979   2.531   0.362   7.944  0.0000  0.0000  0.0000
  980CU      Cu  980   2.527   0.358   8.311  0.0000  0.0000  0.0000
  981CU      Cu  981   2.528   0.539   8.133  0.0000  0.0000  0.0000
  982CU      Cu  982   2.709   0.357   8.133  0.0000  0.0000  0.0000
  983CU      Cu  983   2.713   0.538   7.961  0.0000  0.0000  0.0000
  984CU      Cu  984   2.706   0.538   8.315  0.0000  0.0000  0.0000
  985CU      Cu  985   2.892   0.359   7.950  0.0000  0.0000  0.0000
  986CU      Cu  986   2.888   0.355   8.316  0.0000  0.0000  0.0000
  987CU      Cu  987   2.889   0.539   8.141  0.0000  0.0000  0.0000
  988CU      Cu  988   3.070   0.357   8.138  0.0000  0.0000  0.0000
  989CU      Cu  989   3.067   0.542   7.966  0.0000  0.0000  0.0000
  990CU      Cu  990   3.071   0.538   8.318  0.0000  0.0000  0.0000
  991CU      Cu  991   3.254   0.362   7.963  0.0000  0.0000  0.0000
  992CU      Cu  992   3.255   0.356   8.315  0.0000  0.0000  0.0000
  993CU      Cu  993   3.252   0.541   8.142  0.0000  0.0000  0.0000
  994CU      Cu  994   3.437   0.360   8.137  0.0000  0.0000  0.0000
  995CU      Cu  995   3.433   0.548   7.966  0.0000  0.0000  0.0000
  996CU      Cu  996   3.438   0.541   8.314  0.0000  0.0000  0.0000
  997CU      Cu  997   3.620   0.364   7.961  0.0000  0.0000  0.0000
  998CU      Cu  998   3.623   0.360   8.309  0.0000  0.0000  0.0000
  999CU      Cu  999   3.619   0.545   8.135  0.0000  0.0000  0.0000
 1000CU      Cu 1000   3.802   0.364   8.129  0.0000  0.0000  0.0000
 1001CU      Cu 1001   3.795   0.546   7.943  0.0000  0.0000  0.0000
 1002CU      Cu 1002   3.803   0.543   8.308  0.0000  0.0000  0.0000
 1003CU      Cu 1003   3.976   0.363   7.938  0.0000  0.0000  0.0000
 1004CU      Cu 1004   3.981   0.360   8.302  0.0000  0.0000  0.0000
 1005CU      Cu 1005   3.978   0.544   8.122  0.0000  0.0000  0.0000
 1006CU      Cu 1006   4.156   0.362   8.121  0.0000  0.0000  0.0000
 1007CU      Cu 1007   4.158   0.545   7.939  0.0000  0.0000  0.0000
 1008CU      Cu 1008   4.154   0.542   8.303  0.0000  0.0000  0.0000
 1009CU      Cu 1009   0.005   0.721   7.955  0.0000  0.0000  0.0000
 1010CU      Cu 1010   0.010   0.723   8.305  0.0000  0.0000  0.0000
 1011CU      Cu 1011   0.000   0.905   8.129  0.0000  0.0000  0.0000
 1012CU      Cu 1012   0.183   0.726   8.132  0.0000  0.0000  0.0000
 1013CU      Cu 1013   0.179   0.905   7.945  0.0000  0.0000  0.0000
 1014CU      Cu 1014   0.179   0.905   8.309  0.0000  0.0000  0.0000
 1015CU      Cu 1015   0.360   0.721   7.944  0.0000  0.0000  0.0000
 1016CU      Cu 1016   0.360   0.724   8.311  0.0000  0.0000  0.0000
 1017CU      Cu 1017   0.361   0.904   8.126  0.0000  0.0000  0.0000
 1018CU      Cu 1018   0.541   0.723   8.129  0.0000  0.0000  0.0000
 1019CU      Cu 1019   0.542   0.903   7.944  0.0000  0.0000  0.0000
 1020CU      Cu 1020   0.538   0.903   8.309  0.0000  0.0000  0.0000
 1021CU      Cu 1021   0.725   0.721   7.953  0.0000  0.0000  0.0000
 1022CU      Cu 1022   0.720   0.723   8.310  0.0000  0.0000  0.0000
 1023CU      Cu 1023   0.720   0.903   8.130  0.0000  0.0000  0.0000
 1024CU      Cu 1024   0.904   0.721   8.134  0.0000  0.0000  0.0000
 1025CU      Cu 1025   0.903   0.901   7.957  0.0000  0.0000  0.0000
 1026CU      Cu 1026   0.902   0.901   8.310  0.0000  0.0000  0.0000
 1027CU      Cu 1027   1.084   0.721   7.946  0.0000  0.0000  0.0000
 1028CU      Cu 1028   1.086   0.721   8.311  0.0000  0.0000  0.0000
 1029CU      Cu 1029   1.086   0.900   8.131  0.0000  0.0000  0.0000
 1030CU      Cu 1030   1.268   0.723   8.128  0.0000  0.0000  0.0000
 1031CU      Cu 1031   1.265   0.902   7.942  0.0000  0.0000  0.0000
 1032CU      Cu 1032   1.269   0.899   8.311  0.0000  0.0000  0.0000
 1033CU      Cu 1033   1.447   0.723   7.939  0.0000  0.0000  0.0000
 1034CU      Cu 1034   1.451   0.721   8.308  0.0000  0.0000  0.0000
 1035CU      Cu 1035   1.448   0.901   8.126  0.0000  0.0000  0.0000
 1036CU      Cu 1036   1.628   0.722   8.122  0.0000  0.0000  0.0000
 1037CU      Cu 1037   1.628   0.904   7.939  0.0000  0.0000  0.0000
 1038CU      Cu 1038   1.630   0.901   8.307  0.0000  0.0000  0.0000
 1039CU      Cu 1039   1.808   0.724   7.939  0.0000  0.0000  0.0000
 1040CU      Cu 1040   1.809   0.722   8.304  0.0000  0.0000  0.0000
 1041CU      Cu 1041   1.808   0.902   8.123  0.0000  0.0000  0.0000
 1042CU      Cu 1042   1.989   0.723   8.122  0.0000  0.0000  0.0000
 1043CU      Cu 1043   1.989   0.904   7.940  0.0000  0.0000  0.0000
 1044CU      Cu 1044   1.988   0.901   8.305  0.0000  0.0000  0.0000
 1045CU      Cu 1045   2.170   0.723   7.939  0.0000  0.0000  0.0000
 1046CU      Cu 1046   2.167   0.723   8.307  0.0000  0.0000  0.0000
 1047CU      Cu 1047   2.169   0.903   8.123  0.0000  0.0000  0.0000
 1048CU      Cu 1048   2.348   0.723   8.128  0.0000  0.0000  0.0000
 1049CU      Cu 1049   2.352   0.902   7.942  0.0000  0.0000  0.0000
 1050CU      Cu 1050   2.345   0.904   8.309  0.0000  0.0000  0.0000
 1051CU      Cu 1051   2.535   0.720   7.958  0.0000  0.0000  0.0000
 1052CU      Cu 1052   2.525   0.722   8.312  0.0000  0.0000  0.0000
 1053CU      Cu 1053   2.527   0.904   8.133  0.0000  0.0000  0.0000
 1054CU      Cu 1054   2.710   0.721   8.139  0.0000  0.0000  0.0000
 1055CU      Cu 1055   2.709   0.902   7.961  0.0000  0.0000  0.0000
 1056CU      Cu 1056   2.706   0.905   8.313  0.0000  0.0000  0.0000
 1057CU      Cu 1057   2.888   0.722   7.954  0.0000  0.0000  0.0000
 1058CU      Cu 1058   2.888   0.723   8.318  0.0000  0.0000  0.0000
 1059CU      Cu 1059   2.888   0.904   8.138  0.0000  0.0000  0.0000
 1060CU      Cu 1060   3.069   0.723   8.141  0.0000  0.0000  0.0000
 1061CU      Cu 1061   3.066   0.902   7.963  0.0000  0.0000  0.0000
 1062CU      Cu 1062   3.071   0.906   8.314  0.0000  0.0000  0.0000
 1063CU      Cu 1063   3.250   0.720   7.963  0.0000  0.0000  0.0000
 1064CU      Cu 1064   3.253   0.725   8.316  0.0000  0.0000  0.0000
 1065CU      Cu 1065   3.253   0.905   8.135  0.0000  0.0000  0.0000
 1066CU      Cu 1066   3.435   0.727   8.139  0.0000  0.0000  0.0000
 1067CU      Cu 1067   3.431   0.901   7.949  0.0000  0.0000  0.0000
 1068CU      Cu 1068   3.435   0.908   8.315  0.0000  0.0000  0.0000
 1069CU      Cu 1069   3.614   0.725   7.955  0.0000  0.0000  0.0000
 1070CU      Cu 1070   3.620   0.725   8.313  0.0000  0.0000  0.0000
 1071CU      Cu 1071   3.614   0.906   8.134  0.0000  0.0000  0.0000
 1072CU      Cu 1072   3.799   0.724   8.130  0.0000  0.0000  0.0000
 1073CU      Cu 1073   3.796   0.909   7.960  0.0000  0.0000  0.0000
 1074CU      Cu 1074   3.799   0.906   8.308  0.0000  0.0000  0.0000
 1075CU      Cu 1075   3.976   0.728   7.941  0.0000  0.0000  0.0000
 1076CU      Cu 1076   3.979   0.724   8.306  0.0000  0.0000  0.0000
 1077CU      Cu 1077   3.979   0.906   8.129  0.0000  0.0000  0.0000
 1078CU      Cu 1078   4.156   0.724   8.125  0.0000  0.0000  0.0000
 1079CU      Cu 1079   4.161   0.904   7.947  0.0000  0.0000  0.0000
 1080CU      Cu 1080   4.158   0.904   8.307  0.0000  0.0000  0.0000
 1081CU      Cu 1081   0.011   1.087   7.951  0.0000  0.0000  0.0000
 1082CU      Cu 1082   0.011   1.086   8.308  0.0000  0.0000  0.0000
 1083CU      Cu 1083   0.011   1.267   8.128  0.0000  0.0000  0.0000
 1084CU      Cu 1084   0.180   1.084   8.128  0.0000  0.0000  0.0000
 1085CU      Cu 1085   0.179   1.263   7.948  0.0000  0.0000  0.0000
 1086CU      Cu 1086   0.178   1.264   8.308  0.0000  0.0000  0.0000
 1087CU      Cu 1087   0.361   1.085   7.942  0.0000  0.0000  0.0000
 1088CU      Cu 1088   0.359   1.083   8.308  0.0000  0.0000  0.0000
 1089CU      Cu 1089   0.360   1.263   8.127  0.0000  0.0000  0.0000
 1090CU      Cu 1090   0.540   1.083   8.125  0.0000  0.0000  0.0000
 1091CU      Cu 1091   0.543   1.265   7.942  0.0000  0.0000  0.0000
 1092CU      Cu 1092   0.538   1.260   8.308  0.0000  0.0000  0.0000
 1093CU      Cu 1093   0.724   1.082   7.943  0.0000  0.0000  0.0000
 1094CU      Cu 1094   0.718   1.081   8.310  0.0000  0.0000  0.0000
 1095CU      Cu 1095   0.721   1.260   8.130  0.0000  0.0000  0.0000
 1096CU      Cu 1096   0.902   1.081   8.133  0.0000  0.0000  0.0000
 1097CU      Cu 1097   0.905   1.262   7.955  0.0000  0.0000  0.0000
 1098CU      Cu 1098   0.901   1.257   8.314  0.0000  0.0000  0.0000
 1099CU      Cu 1099   1.083   1.079   7.951  0.0000  0.0000  0.0000
 1100CU      Cu 1100   1.085   1.077   8.312  0.0000  0.0000  0.0000
 1101CU      Cu 1101   1.084   1.258   8.136  0.0000  0.0000  0.0000
 1102CU      Cu 1102   1.267   1.077   8.131  0.0000  0.0000  0.0000
 1103CU      Cu 1103   1.263   1.258   7.956  0.0000  0.0000  0.0000
 1104CU      Cu 1104   1.267   1.257   8.311  0.0000  0.0000  0.0000
 1105CU      Cu 1105   1.445   1.083   7.946  0.0000  0.0000  0.0000
 1106CU      Cu 1106   1.449   1.078   8.310  0.0000  0.0000  0.0000
 1107CU      Cu 1107   1.447   1.260   8.131  0.0000  0.0000  0.0000
 1108CU      Cu 1108   1.627   1.082   8.127  0.0000  0.0000  0.0000
 1109CU      Cu 1109   1.626   1.264   7.944  0.0000  0.0000  0.0000
 1110CU      Cu 1110   1.628   1.259   8.310  0.0000  0.0000  0.0000
 1111CU      Cu 1111   1.807   1.086   7.948  0.0000  0.0000  0.0000
 1112CU      Cu 1112   1.809   1.081   8.306  0.0000  0.0000  0.0000
 1113CU      Cu 1113   1.807   1.263   8.128  0.0000  0.0000  0.0000
 1114CU      Cu 1114   1.989   1.082   8.125  0.0000  0.0000  0.0000
 1115CU      Cu 1115   1.989   1.267   7.950  0.0000  0.0000  0.0000
 1116CU      Cu 1116   1.987   1.261   8.306  0.0000  0.0000  0.0000
 1117CU      Cu 1117   2.170   1.084   7.940  0.0000  0.0000  0.0000
 1118CU      Cu 1118   2.166   1.082   8.307  0.0000  0.0000  0.0000
 1119CU      Cu 1119   2.169   1.262   8.127  0.0000  0.0000  0.0000
 1120CU      Cu 1120   2.348   1.083   8.125  0.0000  0.0000  0.0000
 1121CU      Cu 1121   2.350   1.265   7.941  0.0000  0.0000  0.0000
 1122CU      Cu 1122   2.346   1.261   8.309  0.0000  0.0000  0.0000
 1123CU      Cu 1123   2.531   1.083   7.944  0.0000  0.0000  0.0000
 1124CU      Cu 1124   2.525   1.084   8.311  0.0000  0.0000  0.0000
 1125CU      Cu 1125   2.529   1.263   8.128  0.0000  0.0000  0.0000
 1126CU      Cu 1126   2.709   1.086   8.132  0.0000  0.0000  0.0000
 1127CU      Cu 1127   2.710   1.264   7.944  0.0000  0.0000  0.0000
 1128CU      Cu 1128   2.709   1.262   8.313  0.0000  0.0000  0.0000
 1129CU      Cu 1129   2.889   1.082   7.947  0.0000  0.0000  0.0000
 1130CU      Cu 1130   2.890   1.086   8.313  0.0000  0.0000  0.0000
 1131CU      Cu 1131   2.891   1.263   8.129  0.0000  0.0000  0.0000
 1132CU      Cu 1132   3.071   1.086   8.132  0.0000  0.0000  0.0000
 1133CU      Cu 1133   3.071   1.263   7.944  0.0000  0.0000  0.0000
 1134CU      Cu 1134   3.072   1.264   8.311  0.0000  0.0000  0.0000
 1135CU      Cu 1135   3.250   1.081   7.946  0.0000  0.0000  0.0000
 1136CU      Cu 1136   3.252   1.086   8.311  0.0000  0.0000  0.0000
 1137CU      Cu 1137   3.252   1.263   8.128  0.0000  0.0000  0.0000
 1138CU      Cu 1138   3.433   1.085   8.130  0.0000  0.0000  0.0000
 1139CU      Cu 1139   3.432   1.264   7.944  0.0000  0.0000  0.0000
 1140CU      Cu 1140   3.434   1.263   8.310  0.0000  0.0000  0.0000
 1141CU      Cu 1141   3.612   1.084   7.950  0.0000  0.0000  0.0000
 1142CU      Cu 1142   3.617   1.087   8.311  0.0000  0.0000  0.0000
 1143CU      Cu 1143   3.615   1.266   8.129  0.0000  0.0000  0.0000
 1144CU      Cu 1144   3.797   1.089   8.132  0.0000  0.0000  0.0000
 1145CU      Cu 1145   3.795   1.267   7.947  0.0000  0.0000  0.0000
 1146CU      Cu 1146   3.797   1.268   8.311  0.0000  0.0000  0.0000
 1147CU      Cu 1147   3.978   1.086   7.946  0.0000  0.0000  0.0000
 1148CU      Cu 1148   3.978   1.086   8.310  0.0000  0.0000  0.0000
 1149CU      Cu 1149   3.977   1.267   8.129  0.0000  0.0000  0.0000
 1150CU      Cu 1150   4.156   1.087   8.129  0.0000  0.0000  0.0000
 1151CU      Cu 1151   4.156   1.268   7.943  0.0000  0.0000  0.0000
 1152CU      Cu 1152   4.157   1.267   8.309  0.0000  0.0000  0.0000
 1153CU      Cu 1153   0.000   1.446   7.942  0.0000  0.0000  0.0000
 1154CU      Cu 1154   0.011   1.446   8.309  0.0000  0.0000  0.0000
 1155CU      Cu 1155   0.011   1.626   8.126  0.0000  0.0000  0.0000
 1156CU      Cu 1156   0.179   1.445   8.127  0.0000  0.0000  0.0000
 1157CU      Cu 1157   0.181   1.626   7.944  0.0000  0.0000  0.0000
 1158CU      Cu 1158   0.177   1.623   8.310  0.0000  0.0000  0.0000
 1159CU      Cu 1159   0.362   1.445   7.949  0.0000  0.0000  0.0000
 1160CU      Cu 1160   0.357   1.441   8.309  0.0000  0.0000  0.0000
 1161CU      Cu 1161   0.359   1.623   8.132  0.0000  0.0000  0.0000
 1162CU      Cu 1162   0.540   1.441   8.131  0.0000  0.0000  0.0000
 1163CU      Cu 1163   0.543   1.624   7.954  0.0000  0.0000  0.0000
 1164CU      Cu 1164   0.538   1.619   8.313  0.0000  0.0000  0.0000
 1165CU      Cu 1165   0.724   1.446   7.955  0.0000  0.0000  0.0000
 1166CU      Cu 1166   0.719   1.438   8.312  0.0000  0.0000  0.0000
 1167CU      Cu 1167   0.720   1.623   8.138  0.0000  0.0000  0.0000
 1168CU      Cu 1168   0.902   1.438   8.139  0.0000  0.0000  0.0000
 1169CU      Cu 1169   0.905   1.621   7.969  0.0000  0.0000  0.0000
 1170CU      Cu 1170   0.903   1.621   8.314  0.0000  0.0000  0.0000
 1171CU      Cu 1171   1.081   1.442   7.961  0.0000  0.0000  0.0000
 1172CU      Cu 1172   1.085   1.438   8.314  0.0000  0.0000  0.0000
 1173CU      Cu 1173   1.087   1.623   8.140  0.0000  0.0000  0.0000
 1174CU      Cu 1174   1.266   1.441   8.135  0.0000  0.0000  0.0000
 1175CU      Cu 1175   1.263   1.625   7.954  0.0000  0.0000  0.0000
 1176CU      Cu 1176   1.267   1.622   8.316  0.0000  0.0000  0.0000
 1177CU      Cu 1177   1.445   1.444   7.951  0.0000  0.0000  0.0000
 1178CU      Cu 1178   1.447   1.440   8.313  0.0000  0.0000  0.0000
 1179CU      Cu 1179   1.445   1.622   8.135  0.0000  0.0000  0.0000
 1180CU      Cu 1180   1.627   1.441   8.131  0.0000  0.0000  0.0000
 1181CU      Cu 1181   1.628   1.623   7.959  0.0000  0.0000  0.0000
 1182CU      Cu 1182   1.628   1.622   8.309  0.0000  0.0000  0.0000
 1183CU      Cu 1183   1.808   1.444   7.945  0.0000  0.0000  0.0000
 1184CU      Cu 1184   1.808   1.442   8.308  0.0000  0.0000  0.0000
 1185CU      Cu 1185   1.810   1.624   8.131  0.0000  0.0000  0.0000
 1186CU      Cu 1186   1.988   1.444   8.129  0.0000  0.0000  0.0000
 1187CU      Cu 1187   1.991   1.626   7.946  0.0000  0.0000  0.0000
 1188CU      Cu 1188   1.988   1.622   8.310  0.0000  0.0000  0.0000
 1189CU      Cu 1189   2.172   1.447   7.955  0.0000  0.0000  0.0000
 1190CU      Cu 1190   2.167   1.441   8.309  0.0000  0.0000  0.0000
 1191CU      Cu 1191   2.169   1.625   8.134  0.0000  0.0000  0.0000
 1192CU      Cu 1192   2.351   1.441   8.132  0.0000  0.0000  0.0000
 1193CU      Cu 1193   2.352   1.624   7.958  0.0000  0.0000  0.0000
 1194CU      Cu 1194   2.347   1.620   8.313  0.0000  0.0000  0.0000
 1195CU      Cu 1195   2.531   1.444   7.947  0.0000  0.0000  0.0000
 1196CU      Cu 1196   2.529   1.440   8.313  0.0000  0.0000  0.0000
 1197CU      Cu 1197   2.531   1.622   8.138  0.0000  0.0000  0.0000
 1198CU      Cu 1198   2.711   1.440   8.133  0.0000  0.0000  0.0000
 1199CU      Cu 1199   2.710   1.623   7.963  0.0000  0.0000  0.0000
 1200CU      Cu 1200   2.713   1.621   8.315  0.0000  0.0000  0.0000
 1201CU      Cu 1201   2.890   1.445   7.946  0.0000  0.0000  0.0000
 1202CU      Cu 1202   2.892   1.441   8.312  0.0000  0.0000  0.0000
 1203CU      Cu 1203   2.894   1.623   8.134  0.0000  0.0000  0.0000
 1204CU      Cu 1204   3.072   1.443   8.129  0.0000  0.0000  0.0000
 1205CU      Cu 1205   3.071   1.625   7.948  0.0000  0.0000  0.0000
 1206CU      Cu 1206   3.073   1.622   8.314  0.0000  0.0000  0.0000
 1207CU      Cu 1207   3.252   1.445   7.946  0.0000  0.0000  0.0000
 1208CU      Cu 1208   3.253   1.442   8.311  0.0000  0.0000  0.0000
 1209CU      Cu 1209   3.249   1.624   8.133  0.0000  0.0000  0.0000
 1210CU      Cu 1210   3.433   1.441   8.132  0.0000  0.0000  0.0000
 1211CU      Cu 1211   3.431   1.624   7.964  0.0000  0.0000  0.0000
 1212CU      Cu 1212   3.433   1.625   8.308  0.0000  0.0000  0.0000
 1213CU      Cu 1213   3.613   1.446   7.945  0.0000  0.0000  0.0000
 1214CU      Cu 1214   3.614   1.445   8.311  0.0000  0.0000  0.0000
 1215CU      Cu 1215   3.616   1.625   8.131  0.0000  0.0000  0.0000
 1216CU      Cu 1216   3.794   1.446   8.130  0.0000  0.0000  0.0000
 1217CU      Cu 1217   3.793   1.627   7.944  0.0000  0.0000  0.0000
 1218CU      Cu 1218   3.795   1.626   8.310  0.0000  0.0000  0.0000
 1219CU      Cu 1219   3.975   1.450   7.953  0.0000  0.0000  0.0000
 1220CU      Cu 1220   3.977   1.448   8.308  0.0000  0.0000  0.0000
 1221CU      Cu 1221   3.975   1.629   8.128  0.0000  0.0000  0.0000
 1222CU      Cu 1222   4.158   1.447   8.127  0.0000  0.0000  0.0000
 1223CU      Cu 1223   4.157   1.627   7.942  0.0000  0.0000  0.0000
 1224CU      Cu 1224   4.155   1.626   8.308  0.0000  0.0000  0.0000
 1225CU      Cu 1225   0.002   1.809   7.944  0.0000  0.0000  0.0000
 1226CU      Cu 1226   0.008   1.804   8.309  0.0000  0.0000  0.0000
 1227CU      Cu 1227   0.009   1.986   8.132  0.0000  0.0000  0.0000
 1228CU      Cu 1228   0.178   1.804   8.133  0.0000  0.0000  0.0000
 1229CU      Cu 1229   0.183   1.988   7.959  0.0000  0.0000  0.0000
 1230CU      Cu 1230   0.176   1.982   8.314  0.0000  0.0000  0.0000
 1231CU      Cu 1231   0.359   1.806   7.958  0.0000  0.0000  0.0000
 1232CU      Cu 1232   0.358   1.801   8.314  0.0000  0.0000  0.0000
 1233CU      Cu 1233   0.361   1.984   8.140  0.0000  0.0000  0.0000
 1234CU      Cu 1234   0.542   1.802   8.137  0.0000  0.0000  0.0000
 1235CU      Cu 1235   0.542   1.981   7.960  0.0000  0.0000  0.0000
 1236CU      Cu 1236   0.541   1.983   8.317  0.0000  0.0000  0.0000
 1237CU      Cu 1237   0.724   1.803   7.953  0.0000  0.0000  0.0000
 1238CU      Cu 1238   0.721   1.802   8.317  0.0000  0.0000  0.0000
 1239CU      Cu 1239   0.722   1.984   8.137  0.0000  0.0000  0.0000
 1240CU      Cu 1240   0.902   1.806   8.139  0.0000  0.0000  0.0000
 1241CU      Cu 1241   0.903   1.987   7.952  0.0000  0.0000  0.0000
 1242CU      Cu 1242   0.902   1.984   8.319  0.0000  0.0000  0.0000
 1243CU      Cu 1243   1.081   1.805   7.958  0.0000  0.0000  0.0000
 1244CU      Cu 1244   1.085   1.805   8.316  0.0000  0.0000  0.0000
 1245CU      Cu 1245   1.083   1.986   8.137  0.0000  0.0000  0.0000
 1246CU      Cu 1246   1.265   1.805   8.136  0.0000  0.0000  0.0000
 1247CU      Cu 1247   1.262   1.986   7.956  0.0000  0.0000  0.0000
 1248CU      Cu 1248   1.268   1.986   8.313  0.0000  0.0000  0.0000
 1249CU      Cu 1249   1.446   1.804   7.958  0.0000  0.0000  0.0000
 1250CU      Cu 1250   1.449   1.805   8.311  0.0000  0.0000  0.0000
 1251CU      Cu 1251   1.448   1.987   8.133  0.0000  0.0000  0.0000
 1252CU      Cu 1252   1.629   1.805   8.133  0.0000  0.0000  0.0000
 1253CU      Cu 1253   1.632   1.987   7.957  0.0000  0.0000  0.0000
 1254CU      Cu 1254   1.630   1.988   8.310  0.0000  0.0000  0.0000
 1255CU      Cu 1255   1.810   1.806   7.948  0.0000  0.0000  0.0000
 1256CU      Cu 1256   1.809   1.804   8.311  0.0000  0.0000  0.0000
 1257CU      Cu 1257   1.810   1.988   8.133  0.0000  0.0000  0.0000
 1258CU      Cu 1258   1.989   1.804   8.133  0.0000  0.0000  0.0000
 1259CU      Cu 1259   1.994   1.988   7.960  0.0000  0.0000  0.0000
 1260CU      Cu 1260   1.988   1.988   8.312  0.0000  0.0000  0.0000
 1261CU      Cu 1261   2.172   1.807   7.955  0.0000  0.0000  0.0000
 1262CU      Cu 1262   2.168   1.804   8.313  0.0000  0.0000  0.0000
 1263CU      Cu 1263   2.170   1.987   8.138  0.0000  0.0000  0.0000
 1264CU      Cu 1264   2.352   1.804   8.139  0.0000  0.0000  0.0000
 1265CU      Cu 1265   2.355   1.985   7.967  0.0000  0.0000  0.0000
 1266CU      Cu 1266   2.350   1.987   8.315  0.0000  0.0000  0.0000
 1267CU      Cu 1267   2.533   1.804   7.955  0.0000  0.0000  0.0000
 1268CU      Cu 1268   2.531   1.803   8.318  0.0000  0.0000  0.0000
 1269CU      Cu 1269   2.535   1.985   8.141  0.0000  0.0000  0.0000
 1270CU      Cu 1270   2.713   1.805   8.138  0.0000  0.0000  0.0000
 1271CU      Cu 1271   2.712   1.986   7.952  0.0000  0.0000  0.0000
 1272CU      Cu 1272   2.716   1.986   8.318  0.0000  0.0000  0.0000
 1273CU      Cu 1273   2.889   1.804   7.954  0.0000  0.0000  0.0000
 1274CU      Cu 1274   2.895   1.804   8.315  0.0000  0.0000  0.0000
 1275CU      Cu 1275   2.894   1.986   8.134  0.0000  0.0000  0.0000
 1276CU      Cu 1276   3.073   1.806   8.131  0.0000  0.0000  0.0000
 1277CU      Cu 1277   3.072   1.985   7.945  0.0000  0.0000  0.0000
 1278CU      Cu 1278   3.075   1.987   8.313  0.0000  0.0000  0.0000
 1279CU      Cu 1279   3.253   1.805   7.946  0.0000  0.0000  0.0000
 1280CU      Cu 1280   3.253   1.806   8.311  0.0000  0.0000  0.0000
 1281CU      Cu 1281   3.253   1.987   8.128  0.0000  0.0000  0.0000
 1282CU      Cu 1282   3.432   1.809   8.131  0.0000  0.0000  0.0000
 1283CU      Cu 1283   3.432   1.987   7.943  0.0000  0.0000  0.0000
 1284CU      Cu 1284   3.434   1.989   8.310  0.0000  0.0000  0.0000
 1285CU      Cu 1285   3.611   1.805   7.946  0.0000  0.0000  0.0000
 1286CU      Cu 1286   3.614   1.807   8.309  0.0000  0.0000  0.0000
 1287CU      Cu 1287   3.612   1.988   8.128  0.0000  0.0000  0.0000
 1288CU      Cu 1288   3.794   1.806   8.128  0.0000  0.0000  0.0000
 1289CU      Cu 1289   3.793   1.985   7.952  0.0000  0.0000  0.0000
 1290CU      Cu 1290   3.794   1.988   8.305  0.0000  0.0000  0.0000
 1291CU      Cu 1291   3.975   1.807   7.942  0.0000  0.0000  0.0000
 1292CU      Cu 1292   3.975   1.807   8.308  0.0000  0.0000  0.0000
 1293CU      Cu 1293   3.975   1.987   8.126  0.0000  0.0000  0.0000
 1294CU      Cu 1294   4.156   1.807   8.126  0.0000  0.0000  0.0000
 1295CU      Cu 1295   4.157   1.988   7.943  0.0000  0.0000  0.0000
 1296CU      Cu 1296   4.152   1.987   8.308  0.0000  0.0000  0.0000
 1297CU      Cu 1297   0.000   2.169   7.957  0.0000  0.0000  0.0000
 1298CU      Cu 1298   0.005   2.167   8.312  0.0000  0.0000  0.0000
 1299CU      Cu 1299   0.007   2.348   8.136  0.0000  0.0000  0.0000
 1300CU      Cu 1300   0.179   2.163   8.142  0.0000  0.0000  0.0000
 1301CU      Cu 1301   0.181   2.341   7.973  0.0000  0.0000  0.0000
 1302CU      Cu 1302   0.176   2.350   8.313  0.0000  0.0000  0.0000
 1303CU      Cu 1303   0.361   2.166   7.961  0.0000  0.0000  0.0000
 1304CU      Cu 1304   0.360   2.166   8.317  0.0000  0.0000  0.0000
 1305CU      Cu 1305   0.363   2.348   8.140  0.0000  0.0000  0.0000
 1306CU      Cu 1306   0.542   2.166   8.138  0.0000  0.0000  0.0000
 1307CU      Cu 1307   0.541   2.348   7.953  0.0000  0.0000  0.0000
 1308CU      Cu 1308   0.540   2.349   8.319  0.0000  0.0000  0.0000
 1309CU      Cu 1309   0.722   2.167   7.954  0.0000  0.0000  0.0000
 1310CU      Cu 1310   0.720   2.165   8.318  0.0000  0.0000  0.0000
 1311CU      Cu 1311   0.718   2.346   8.141  0.0000  0.0000  0.0000
 1312CU      Cu 1312   0.902   2.163   8.140  0.0000  0.0000  0.0000
 1313CU      Cu 1313   0.903   2.344   7.971  0.0000  0.0000  0.0000
 1314CU      Cu 1314   0.901   2.347   8.317  0.0000  0.0000  0.0000
 1315CU      Cu 1315   1.084   2.168   7.954  0.0000  0.0000  0.0000
 1316CU      Cu 1316   1.085   2.166   8.317  0.0000  0.0000  0.0000
 1317CU      Cu 1317   1.085   2.347   8.142  0.0000  0.0000  0.0000
 1318CU      Cu 1318   1.265   2.167   8.137  0.0000  0.0000  0.0000
 1319CU      Cu 1319   1.264   2.348   7.962  0.0000  0.0000  0.0000
 1320CU      Cu 1320   1.270   2.349   8.316  0.0000  0.0000  0.0000
 1321CU      Cu 1321   1.446   2.172   7.958  0.0000  0.0000  0.0000
 1322CU      Cu 1322   1.451   2.169   8.310  0.0000  0.0000  0.0000
 1323CU      Cu 1323   1.449   2.352   8.134  0.0000  0.0000  0.0000
 1324CU      Cu 1324   1.630   2.171   8.131  0.0000  0.0000  0.0000
 1325CU      Cu 1325   1.627   2.351   7.945  0.0000  0.0000  0.0000
 1326CU      Cu 1326   1.630   2.353   8.310  0.0000  0.0000  0.0000
 1327CU      Cu 1327   1.810   2.169   7.948  0.0000  0.0000  0.0000
 1328CU      Cu 1328   1.808   2.172   8.311  0.0000  0.0000  0.0000
 1329CU      Cu 1329   1.808   2.353   8.127  0.0000  0.0000  0.0000
 1330CU      Cu 1330   1.986   2.173   8.134  0.0000  0.0000  0.0000
 1331CU      Cu 1331   1.989   2.351   7.945  0.0000  0.0000  0.0000
 1332CU      Cu 1332   1.986   2.356   8.309  0.0000  0.0000  0.0000
 1333CU      Cu 1333   2.171   2.174   7.967  0.0000  0.0000  0.0000
 1334CU      Cu 1334   2.167   2.173   8.312  0.0000  0.0000  0.0000
 1335CU      Cu 1335   2.168   2.356   8.133  0.0000  0.0000  0.0000
 1336CU      Cu 1336   2.352   2.171   8.139  0.0000  0.0000  0.0000
 1337CU      Cu 1337   2.353   2.349   7.952  0.0000  0.0000  0.0000
 1338CU      Cu 1338   2.347   2.354   8.312  0.0000  0.0000  0.0000
 1339CU      Cu 1339   2.536   2.167   7.964  0.0000  0.0000  0.0000
 1340CU      Cu 1340   2.532   2.169   8.316  0.0000  0.0000  0.0000
 1341CU      Cu 1341   2.531   2.350   8.138  0.0000  0.0000  0.0000
 1342CU      Cu 1342   2.716   2.166   8.139  0.0000  0.0000  0.0000
 1343CU      Cu 1343   2.713   2.345   7.960  0.0000  0.0000  0.0000
 1344CU      Cu 1344   2.712   2.351   8.316  0.0000  0.0000  0.0000
 1345CU      Cu 1345   2.892   2.167   7.950  0.0000  0.0000  0.0000
 1346CU      Cu 1346   2.896   2.168   8.316  0.0000  0.0000  0.0000
 1347CU      Cu 1347   2.893   2.348   8.136  0.0000  0.0000  0.0000
 1348CU      Cu 1348   3.074   2.166   8.132  0.0000  0.0000  0.0000
 1349CU      Cu 1349   3.071   2.348   7.957  0.0000  0.0000  0.0000
 1350CU      Cu 1350   3.076   2.350   8.312  0.0000  0.0000  0.0000
 1351CU      Cu 1351   3.251   2.168   7.944  0.0000  0.0000  0.0000
 1352CU      Cu 1352   3.255   2.169   8.310  0.0000  0.0000  0.0000
 1353CU      Cu 1353   3.255   2.349   8.129  0.0000  0.0000  0.0000
 1354CU      Cu 1354   3.434   2.168   8.126  0.0000  0.0000  0.0000
 1355CU      Cu 1355   3.432   2.349   7.941  0.0000  0.0000  0.0000
 1356CU      Cu 1356   3.436   2.350   8.307  0.0000  0.0000  0.0000
 1357CU      Cu 1357   3.614   2.167   7.941  0.0000  0.0000  0.0000
 1358CU      Cu 1358   3.615   2.170   8.306  0.0000  0.0000  0.0000
 1359CU      Cu 1359   3.614   2.349   8.124  0.0000  0.0000  0.0000
 1360CU      Cu 1360   3.794   2.170   8.125  0.0000  0.0000  0.0000
 1361CU      Cu 1361   3.793   2.349   7.938  0.0000  0.0000  0.0000
 1362CU      Cu 1362   3.794   2.351   8.305  0.0000  0.0000  0.0000
 1363CU      Cu 1363   3.974   2.167   7.941  0.0000  0.0000  0.0000
 1364CU      Cu 1364   3.972   2.169   8.305  0.0000  0.0000  0.0000
 1365CU      Cu 1365   3.973   2.350   8.123  0.0000  0.0000  0.0000
 1366CU      Cu 1366   4.152   2.168   8.128  0.0000  0.0000  0.0000
 1367CU      Cu 1367   4.156   2.348   7.944  0.0000  0.0000  0.0000
 1368CU      Cu 1368   4.148   2.350   8.307  0.0000  0.0000  0.0000
 1369CU      Cu 1369   0.002   2.524   7.956  0.0000  0.0000  0.0000
 1370CU      Cu 1370   0.006   2.531   8.309  0.0000  0.0000  0.0000
 1371CU      Cu 1371   0.010   2.709   8.129  0.0000  0.0000  0.0000
 1372CU      Cu 1372   0.180   2.531   8.135  0.0000  0.0000  0.0000
 1373CU      Cu 1373   0.179   2.709   7.947  0.0000  0.0000  0.0000
 1374CU      Cu 1374   0.175   2.713   8.311  0.0000  0.0000  0.0000
 1375CU      Cu 1375   0.362   2.528   7.955  0.0000  0.0000  0.0000
 1376CU      Cu 1376   0.357   2.533   8.316  0.0000  0.0000  0.0000
 1377CU      Cu 1377   0.358   2.712   8.132  0.0000  0.0000  0.0000
 1378CU      Cu 1378   0.537   2.531   8.140  0.0000  0.0000  0.0000
 1379CU      Cu 1379   0.540   2.712   7.955  0.0000  0.0000  0.0000
 1380CU      Cu 1380   0.537   2.715   8.314  0.0000  0.0000  0.0000
 1381CU      Cu 1381   0.718   2.531   7.970  0.0000  0.0000  0.0000
 1382CU      Cu 1382   0.719   2.533   8.316  0.0000  0.0000  0.0000
 1383CU      Cu 1383   0.720   2.715   8.138  0.0000  0.0000  0.0000
 1384CU      Cu 1384   0.903   2.530   8.142  0.0000  0.0000  0.0000
 1385CU      Cu 1385   0.901   2.706   7.961  0.0000  0.0000  0.0000
 1386CU      Cu 1386   0.901   2.715   8.315  0.0000  0.0000  0.0000
 1387CU      Cu 1387   1.081   2.526   7.956  0.0000  0.0000  0.0000
 1388CU      Cu 1388   1.085   2.531   8.317  0.0000  0.0000  0.0000
 1389CU      Cu 1389   1.082   2.711   8.139  0.0000  0.0000  0.0000
 1390CU      Cu 1390   1.265   2.529   8.139  0.0000  0.0000  0.0000
 1391CU      Cu 1391   1.259   2.706   7.966  0.0000  0.0000  0.0000
 1392CU      Cu 1392   1.268   2.714   8.311  0.0000  0.0000  0.0000
 1393CU      Cu 1393   1.443   2.530   7.947  0.0000  0.0000  0.0000
 1394CU      Cu 1394   1.450   2.534   8.312  0.0000  0.0000  0.0000
 1395CU      Cu 1395   1.448   2.711   8.130  0.0000  0.0000  0.0000
 1396CU      Cu 1396   1.627   2.532   8.127  0.0000  0.0000  0.0000
 1397CU      Cu 1397   1.625   2.710   7.942  0.0000  0.0000  0.0000
 1398CU      Cu 1398   1.629   2.714   8.307  0.0000  0.0000  0.0000
 1399CU      Cu 1399   1.808   2.532   7.945  0.0000  0.0000  0.0000
 1400CU      Cu 1400   1.808   2.535   8.306  0.0000  0.0000  0.0000
 1401CU      Cu 1401   1.808   2.712   8.125  0.0000  0.0000  0.0000
 1402CU      Cu 1402   1.988   2.533   8.125  0.0000  0.0000  0.0000
 1403CU      Cu 1403   1.990   2.711   7.939  0.0000  0.0000  0.0000
 1404CU      Cu 1404   1.987   2.714   8.306  0.0000  0.0000  0.0000
 1405CU      Cu 1405   2.172   2.529   7.942  0.0000  0.0000  0.0000
 1406CU      Cu 1406   2.166   2.536   8.310  0.0000  0.0000  0.0000
 1407CU      Cu 1407   2.168   2.712   8.125  0.0000  0.0000  0.0000
 1408CU      Cu 1408   2.348   2.532   8.130  0.0000  0.0000  0.0000
 1409CU      Cu 1409   2.350   2.711   7.946  0.0000  0.0000  0.0000
 1410CU      Cu 1410   2.346   2.714   8.308  0.0000  0.0000  0.0000
 1411CU      Cu 1411   2.533   2.527   7.958  0.0000  0.0000  0.0000
 1412CU      Cu 1412   2.528   2.534   8.311  0.0000  0.0000  0.0000
 1413CU      Cu 1413   2.528   2.713   8.131  0.0000  0.0000  0.0000
 1414CU      Cu 1414   2.712   2.529   8.136  0.0000  0.0000  0.0000
 1415CU      Cu 1415   2.710   2.707   7.957  0.0000  0.0000  0.0000
 1416CU      Cu 1416   2.708   2.713   8.311  0.0000  0.0000  0.0000
 1417CU      Cu 1417   2.890   2.527   7.950  0.0000  0.0000  0.0000
 1418CU      Cu 1418   2.893   2.532   8.313  0.0000  0.0000  0.0000
 1419CU      Cu 1419   2.890   2.711   8.135  0.0000  0.0000  0.0000
 1420CU      Cu 1420   3.073   2.530   8.133  0.0000  0.0000  0.0000
 1421CU      Cu 1421   3.066   2.709   7.957  0.0000  0.0000  0.0000
 1422CU      Cu 1422   3.074   2.712   8.310  0.0000  0.0000  0.0000
 1423CU      Cu 1423   3.249   2.529   7.946  0.0000  0.0000  0.0000
 1424CU      Cu 1424   3.256   2.531   8.309  0.0000  0.0000  0.0000
 1425CU      Cu 1425   3.254   2.711   8.128  0.0000  0.0000  0.0000
 1426CU      Cu 1426   3.433   2.530   8.125  0.0000  0.0000  0.0000
 1427CU      Cu 1427   3.431   2.711   7.941  0.0000  0.0000  0.0000
 1428CU      Cu 1428   3.436   2.711   8.306  0.0000  0.0000  0.0000
 1429CU      Cu 1429   3.613   2.531   7.944  0.0000  0.0000  0.0000
 1430CU      Cu 1430   3.615   2.531   8.304  0.0000  0.0000  0.0000
 1431CU      Cu 1431   3.614   2.711   8.123  0.0000  0.0000  0.0000
 1432CU      Cu 1432   3.794   2.530   8.122  0.0000  0.0000  0.0000
 1433CU      Cu 1433   3.794   2.712   7.938  0.0000  0.0000  0.0000
 1434CU      Cu 1434   3.793   2.711   8.303  0.0000  0.0000  0.0000
 1435CU      Cu 1435   3.975   2.530   7.937  0.0000  0.0000  0.0000
 1436CU      Cu 1436   3.971   2.531   8.304  0.0000  0.0000  0.0000
 1437CU      Cu 1437   3.974   2.710   8.122  0.0000  0.0000  0.0000
 1438CU      Cu 1438   4.152   2.530   8.126  0.0000  0.0000  0.0000
 1439CU      Cu 1439   4.158   2.709   7.943  0.0000  0.0000  0.0000
 1440CU      Cu 1440   4.152   2.710   8.306  0.0000  0.0000  0.0000
 1441CU      Cu 1441   0.010   2.890   7.953  0.0000  0.0000  0.0000
 1442CU      Cu 1442   0.008   2.890   8.308  0.0000  0.0000  0.0000
 1443CU      Cu 1443   0.010   3.072   8.128  0.0000  0.0000  0.0000
 1444CU      Cu 1444   0.178   2.891   8.129  0.0000  0.0000  0.0000
 1445CU      Cu 1445   0.179   3.070   7.947  0.0000  0.0000  0.0000
 1446CU      Cu 1446   0.176   3.071   8.308  0.0000  0.0000  0.0000
 1447CU      Cu 1447   0.360   2.893   7.950  0.0000  0.0000  0.0000
 1448CU      Cu 1448   0.356   2.893   8.310  0.0000  0.0000  0.0000
 1449CU      Cu 1449   0.359   3.071   8.130  0.0000  0.0000  0.0000
 1450CU      Cu 1450   0.540   2.894   8.131  0.0000  0.0000  0.0000
 1451CU      Cu 1451   0.543   3.071   7.946  0.0000  0.0000  0.0000
 1452CU      Cu 1452   0.537   3.072   8.311  0.0000  0.0000  0.0000
 1453CU      Cu 1453   0.723   2.889   7.947  0.0000  0.0000  0.0000
 1454CU      Cu 1454   0.719   2.895   8.314  0.0000  0.0000  0.0000
 1455CU      Cu 1455   0.721   3.071   8.132  0.0000  0.0000  0.0000
 1456CU      Cu 1456   0.902   2.893   8.133  0.0000  0.0000  0.0000
 1457CU      Cu 1457   0.903   3.071   7.951  0.0000  0.0000  0.0000
 1458CU      Cu 1458   0.903   3.072   8.313  0.0000  0.0000  0.0000
 1459CU      Cu 1459   1.081   2.888   7.948  0.0000  0.0000  0.0000
 1460CU      Cu 1460   1.085   2.894   8.313  0.0000  0.0000  0.0000
 1461CU      Cu 1461   1.084   3.072   8.130  0.0000  0.0000  0.0000
 1462CU      Cu 1462   1.264   2.894   8.131  0.0000  0.0000  0.0000
 1463CU      Cu 1463   1.262   3.070   7.943  0.0000  0.0000  0.0000
 1464CU      Cu 1464   1.267   3.073   8.309  0.0000  0.0000  0.0000
 1465CU      Cu 1465   1.441   2.888   7.945  0.0000  0.0000  0.0000
 1466CU      Cu 1466   1.448   2.893   8.307  0.0000  0.0000  0.0000
 1467CU      Cu 1467   1.445   3.072   8.125  0.0000  0.0000  0.0000
 1468CU      Cu 1468   1.626   2.891   8.124  0.0000  0.0000  0.0000
 1469CU      Cu 1469   1.624   3.070   7.942  0.0000  0.0000  0.0000
 1470CU      Cu 1470   1.627   3.072   8.305  0.0000  0.0000  0.0000
 1471CU      Cu 1471   1.807   2.889   7.945  0.0000  0.0000  0.0000
 1472CU      Cu 1472   1.808   2.893   8.305  0.0000  0.0000  0.0000
 1473CU      Cu 1473   1.807   3.070   8.124  0.0000  0.0000  0.0000
 1474CU      Cu 1474   1.988   2.892   8.123  0.0000  0.0000  0.0000
 1475CU      Cu 1475   1.987   3.072   7.939  0.0000  0.0000  0.0000
 1476CU      Cu 1476   1.987   3.072   8.303  0.0000  0.0000  0.0000
 1477CU      Cu 1477   2.169   2.893   7.945  0.0000  0.0000  0.0000
 1478CU      Cu 1478   2.166   2.893   8.304  0.0000  0.0000  0.0000
 1479CU      Cu 1479   2.168   3.073   8.123  0.0000  0.0000  0.0000
 1480CU      Cu 1480   2.348   2.893   8.126  0.0000  0.0000  0.0000
 1481CU      Cu 1481   2.350   3.072   7.941  0.0000  0.0000  0.0000
 1482CU      Cu 1482   2.345   3.072   8.307  0.0000  0.0000  0.0000
 1483CU      Cu 1483   2.532   2.890   7.943  0.0000  0.0000  0.0000
 1484CU      Cu 1484   2.526   2.893   8.310  0.0000  0.0000  0.0000
 1485CU      Cu 1485   2.528   3.071   8.129  0.0000  0.0000  0.0000
 1486CU      Cu 1486   2.709   2.892   8.132  0.0000  0.0000  0.0000
 1487CU      Cu 1487   2.711   3.070   7.952  0.0000  0.0000  0.0000
 1488CU      Cu 1488   2.707   3.071   8.312  0.0000  0.0000  0.0000
 1489CU      Cu 1489   2.889   2.890   7.948  0.0000  0.0000  0.0000
 1490CU      Cu 1490   2.890   2.892   8.312  0.0000  0.0000  0.0000
 1491CU      Cu 1491   2.891   3.071   8.131  0.0000  0.0000  0.0000
 1492CU      Cu 1492   3.071   2.892   8.131  0.0000  0.0000  0.0000
 1493CU      Cu 1493   3.069   3.070   7.945  0.0000  0.0000  0.0000
 1494CU      Cu 1494   3.072   3.070   8.311  0.0000  0.0000  0.0000
 1495CU      Cu 1495   3.250   2.891   7.946  0.0000  0.0000  0.0000
 1496CU      Cu 1496   3.254   2.890   8.308  0.0000  0.0000  0.0000
 1497CU      Cu 1497   3.252   3.069   8.129  0.0000  0.0000  0.0000
 1498CU      Cu 1498   3.433   2.891   8.125  0.0000  0.0000  0.0000
 1499CU      Cu 1499   3.432   3.072   7.942  0.0000  0.0000  0.0000
 1500CU      Cu 1500   3.434   3.069   8.308  0.0000  0.0000  0.0000
 1501CU      Cu 1501   3.613   2.892   7.943  0.0000  0.0000  0.0000
 1502CU      Cu 1502   3.615   2.891   8.305  0.0000  0.0000  0.0000
 1503CU      Cu 1503   3.614   3.071   8.126  0.0000  0.0000  0.0000
 1504CU      Cu 1504   3.794   2.891   8.124  0.0000  0.0000  0.0000
 1505CU      Cu 1505   3.796   3.074   7.945  0.0000  0.0000  0.0000
 1506CU      Cu 1506   3.795   3.069   8.307  0.0000  0.0000  0.0000
 1507CU      Cu 1507   3.976   2.893   7.944  0.0000  0.0000  0.0000
 1508CU      Cu 1508   3.973   2.889   8.305  0.0000  0.0000  0.0000
 1509CU      Cu 1509   3.976   3.071   8.127  0.0000  0.0000  0.0000
 1510CU      Cu 1510   4.154   2.890   8.126  0.0000  0.0000  0.0000
 1511CU      Cu 1511   4.157   3.072   7.941  0.0000  0.0000  0.0000
 1512CU      Cu 1512   4.155   3.070   8.308  0.0000  0.0000  0.0000
 1513CU      Cu 1513   0.000   3.252   7.946  0.0000  0.0000  0.0000
 1514CU      Cu 1514   0.010   3.251   8.308  0.0000  0.0000  0.0000
 1515CU      Cu 1515   0.012   3.432   8.127  0.0000  0.0000  0.0000
 1516CU      Cu 1516   0.178   3.252   8.129  0.0000  0.0000  0.0000
 1517CU      Cu 1517   0.182   3.431   7.945  0.0000  0.0000  0.0000
 1518CU      Cu 1518   0.176   3.432   8.310  0.0000  0.0000  0.0000
 1519CU      Cu 1519   0.365   3.252   7.956  0.0000  0.0000  0.0000
 1520CU      Cu 1520   0.356   3.251   8.311  0.0000  0.0000  0.0000
 1521CU      Cu 1521   0.359   3.432   8.133  0.0000  0.0000  0.0000
 1522CU      Cu 1522   0.541   3.252   8.134  0.0000  0.0000  0.0000
 1523CU      Cu 1523   0.541   3.434   7.951  0.0000  0.0000  0.0000
 1524CU      Cu 1524   0.538   3.432   8.314  0.0000  0.0000  0.0000
 1525CU      Cu 1525   0.720   3.254   7.956  0.0000  0.0000  0.0000
 1526CU      Cu 1526   0.720   3.250   8.314  0.0000  0.0000  0.0000
 1527CU      Cu 1527   0.720   3.433   8.136  0.0000  0.0000  0.0000
 1528CU      Cu 1528   0.903   3.250   8.135  0.0000  0.0000  0.0000
 1529CU      Cu 1529   0.902   3.429   7.961  0.0000  0.0000  0.0000
 1530CU      Cu 1530   0.903   3.431   8.314  0.0000  0.0000  0.0000
 1531CU      Cu 1531   1.083   3.252   7.946  0.0000  0.0000  0.0000
 1532CU      Cu 1532   1.086   3.250   8.312  0.0000  0.0000  0.0000
 1533CU      Cu 1533   1.085   3.431   8.133  0.0000  0.0000  0.0000
 1534CU      Cu 1534   1.265   3.251   8.127  0.0000  0.0000  0.0000
 1535CU      Cu 1535   1.263   3.435   7.946  0.0000  0.0000  0.0000
 1536CU      Cu 1536   1.266   3.431   8.310  0.0000  0.0000  0.0000
 1537CU      Cu 1537   1.443   3.252   7.942  0.0000  0.0000  0.0000
 1538CU      Cu 1538   1.447   3.251   8.307  0.0000  0.0000  0.0000
 1539CU      Cu 1539   1.444   3.432   8.128  0.0000  0.0000  0.0000
 1540CU      Cu 1540   1.624   3.250   8.126  0.0000  0.0000  0.0000
 1541CU      Cu 1541   1.625   3.432   7.949  0.0000  0.0000  0.0000
 1542CU      Cu 1542   1.627   3.430   8.305  0.0000  0.0000  0.0000
 1543CU      Cu 1543   1.804   3.250   7.947  0.0000  0.0000  0.0000
 1544CU      Cu 1544   1.807   3.251   8.302  0.0000  0.0000  0.0000
 1545CU      Cu 1545   1.807   3.432   8.126  0.0000  0.0000  0.0000
 1546CU      Cu 1546   1.988   3.252   8.123  0.0000  0.0000  0.0000
 1547CU      Cu 1547   1.986   3.433   7.942  0.0000  0.0000  0.0000
 1548CU      Cu 1548   1.986   3.431   8.306  0.0000  0.0000  0.0000
 1549CU      Cu 1549   2.168   3.253   7.938  0.0000  0.0000  0.0000
 1550CU      Cu 1550   2.166   3.252   8.306  0.0000  0.0000  0.0000
 1551CU      Cu 1551   2.167   3.432   8.125  0.0000  0.0000  0.0000
 1552CU      Cu 1552   2.347   3.252   8.127  0.0000  0.0000  0.0000
 1553CU      Cu 1553   2.349   3.432   7.945  0.0000  0.0000  0.0000
 1554CU      Cu 1554   2.345   3.432   8.308  0.0000  0.0000  0.0000
 1555CU      Cu 1555   2.529   3.253   7.951  0.0000  0.0000  0.0000
 1556CU      Cu 1556   2.526   3.251   8.309  0.0000  0.0000  0.0000
 1557CU      Cu 1557   2.528   3.433   8.131  0.0000  0.0000  0.0000
 1558CU      Cu 1558   2.710   3.250   8.133  0.0000  0.0000  0.0000
 1559CU      Cu 1559   2.710   3.429   7.956  0.0000  0.0000  0.0000
 1560CU      Cu 1560   2.709   3.432   8.311  0.0000  0.0000  0.0000
 1561CU      Cu 1561   2.890   3.251   7.946  0.0000  0.0000  0.0000
 1562CU      Cu 1562   2.890   3.250   8.312  0.0000  0.0000  0.0000
 1563CU      Cu 1563   2.892   3.431   8.132  0.0000  0.0000  0.0000
 1564CU      Cu 1564   3.070   3.250   8.130  0.0000  0.0000  0.0000
 1565CU      Cu 1565   3.072   3.432   7.945  0.0000  0.0000  0.0000
 1566CU      Cu 1566   3.072   3.431   8.311  0.0000  0.0000  0.0000
 1567CU      Cu 1567   3.251   3.249   7.952  0.0000  0.0000  0.0000
 1568CU      Cu 1568   3.252   3.249   8.309  0.0000  0.0000  0.0000
 1569CU      Cu 1569   3.250   3.431   8.131  0.0000  0.0000  0.0000
 1570CU      Cu 1570   3.434   3.248   8.130  0.0000  0.0000  0.0000
 1571CU      Cu 1571   3.431   3.427   7.956  0.0000  0.0000  0.0000
 1572CU      Cu 1572   3.433   3.428   8.309  0.0000  0.0000  0.0000
 1573CU      Cu 1573   3.614   3.253   7.943  0.0000  0.0000  0.0000
 1574CU      Cu 1574   3.615   3.248   8.309  0.0000  0.0000  0.0000
 1575CU      Cu 1575   3.615   3.429   8.131  0.0000  0.0000  0.0000
 1576CU      Cu 1576   3.795   3.250   8.130  0.0000  0.0000  0.0000
 1577CU      Cu 1577   3.797   3.431   7.951  0.0000  0.0000  0.0000
 1578CU      Cu 1578   3.796   3.429   8.309  0.0000  0.0000  0.0000
 1579CU      Cu 1579   3.976   3.253   7.952  0.0000  0.0000  0.0000
 1580CU      Cu 1580   3.976   3.250   8.309  0.0000  0.0000  0.0000
 1581CU      Cu 1581   3.978   3.431   8.131  0.0000  0.0000  0.0000
 1582CU      Cu 1582   4.157   3.251   8.128  0.0000  0.0000  0.0000
 1583CU      Cu 1583   4.158   3.431   7.943  0.0000  0.0000  0.0000
 1584CU      Cu 1584   4.157   3.431   8.309  0.0000  0.0000  0.0000
 1585CU      Cu 1585   0.002   3.613   7.943  0.0000  0.0000  0.0000
 1586CU      Cu 1586   0.009   3.613   8.308  0.0000  0.0000  0.0000
 1587CU      Cu 1587   0.010   3.793   8.128  0.0000  0.0000  0.0000
 1588CU      Cu 1588   0.177   3.612   8.131  0.0000  0.0000  0.0000
 1589CU      Cu 1589   0.183   3.795   7.955  0.0000  0.0000  0.0000
 1590CU      Cu 1590   0.176   3.794   8.310  0.0000  0.0000  0.0000
 1591CU      Cu 1591   0.358   3.614   7.958  0.0000  0.0000  0.0000
 1592CU      Cu 1592   0.357   3.614   8.311  0.0000  0.0000  0.0000
 1593CU      Cu 1593   0.361   3.796   8.134  0.0000  0.0000  0.0000
 1594CU      Cu 1594   0.541   3.614   8.134  0.0000  0.0000  0.0000
 1595CU      Cu 1595   0.541   3.794   7.950  0.0000  0.0000  0.0000
 1596CU      Cu 1596   0.541   3.794   8.314  0.0000  0.0000  0.0000
 1597CU      Cu 1597   0.721   3.612   7.952  0.0000  0.0000  0.0000
 1598CU      Cu 1598   0.721   3.613   8.315  0.0000  0.0000  0.0000
 1599CU      Cu 1599   0.722   3.795   8.132  0.0000  0.0000  0.0000
 1600CU      Cu 1600   0.902   3.614   8.135  0.0000  0.0000  0.0000
 1601CU      Cu 1601   0.902   3.794   7.948  0.0000  0.0000  0.0000
 1602CU      Cu 1602   0.903   3.794   8.314  0.0000  0.0000  0.0000
 1603CU      Cu 1603   1.081   3.613   7.954  0.0000  0.0000  0.0000
 1604CU      Cu 1604   1.084   3.613   8.313  0.0000  0.0000  0.0000
 1605CU      Cu 1605   1.082   3.796   8.133  0.0000  0.0000  0.0000
 1606CU      Cu 1606   1.263   3.614   8.132  0.0000  0.0000  0.0000
 1607CU      Cu 1607   1.263   3.797   7.951  0.0000  0.0000  0.0000
 1608CU      Cu 1608   1.265   3.795   8.312  0.0000  0.0000  0.0000
 1609CU      Cu 1609   1.443   3.616   7.953  0.0000  0.0000  0.0000
 1610CU      Cu 1610   1.446   3.612   8.308  0.0000  0.0000  0.0000
 1611CU      Cu 1611   1.444   3.796   8.133  0.0000  0.0000  0.0000
 1612CU      Cu 1612   1.626   3.613   8.130  0.0000  0.0000  0.0000
 1613CU      Cu 1613   1.629   3.797   7.958  0.0000  0.0000  0.0000
 1614CU      Cu 1614   1.627   3.795   8.309  0.0000  0.0000  0.0000
 1615CU      Cu 1615   1.806   3.614   7.944  0.0000  0.0000  0.0000
 1616CU      Cu 1616   1.807   3.612   8.307  0.0000  0.0000  0.0000
 1617CU      Cu 1617   1.808   3.795   8.131  0.0000  0.0000  0.0000
 1618CU      Cu 1618   1.987   3.612   8.127  0.0000  0.0000  0.0000
 1619CU      Cu 1619   1.988   3.794   7.952  0.0000  0.0000  0.0000
 1620CU      Cu 1620   1.988   3.794   8.306  0.0000  0.0000  0.0000
 1621CU      Cu 1621   2.167   3.614   7.947  0.0000  0.0000  0.0000
 1622CU      Cu 1622   2.166   3.612   8.306  0.0000  0.0000  0.0000
 1623CU      Cu 1623   2.169   3.794   8.129  0.0000  0.0000  0.0000
 1624CU      Cu 1624   2.349   3.613   8.128  0.0000  0.0000  0.0000
 1625CU      Cu 1625   2.350   3.794   7.947  0.0000  0.0000  0.0000
 1626CU      Cu 1626   2.347   3.793   8.309  0.0000  0.0000  0.0000
 1627CU      Cu 1627   2.532   3.612   7.947  0.0000  0.0000  0.0000
 1628CU      Cu 1628   2.527   3.613   8.310  0.0000  0.0000  0.0000
 1629CU      Cu 1629   2.530   3.794   8.129  0.0000  0.0000  0.0000
 1630CU      Cu 1630   2.710   3.613   8.131  0.0000  0.0000  0.0000
 1631CU      Cu 1631   2.711   3.793   7.944  0.0000  0.0000  0.0000
 1632CU      Cu 1632   2.710   3.794   8.310  0.0000  0.0000  0.0000
 1633CU      Cu 1633   2.891   3.612   7.952  0.0000  0.0000  0.0000
 1634CU      Cu 1634   2.891   3.613   8.310  0.0000  0.0000  0.0000
 1635CU      Cu 1635   2.891   3.794   8.129  0.0000  0.0000  0.0000
 1636CU      Cu 1636   3.072   3.612   8.130  0.0000  0.0000  0.0000
 1637CU      Cu 1637   3.074   3.795   7.946  0.0000  0.0000  0.0000
 1638CU      Cu 1638   3.071   3.794   8.311  0.0000  0.0000  0.0000
 1639CU      Cu 1639   3.254   3.612   7.946  0.0000  0.0000  0.0000
 1640CU      Cu 1640   3.253   3.611   8.311  0.0000  0.0000  0.0000
 1641CU      Cu 1641   3.252   3.790   8.133  0.0000  0.0000  0.0000
 1642CU      Cu 1642   3.434   3.609   8.133  0.0000  0.0000  0.0000
 1643CU      Cu 1643   3.438   3.790   7.961  0.0000  0.0000  0.0000
 1644CU      Cu 1644   3.436   3.793   8.309  0.0000  0.0000  0.0000
 1645CU      Cu 1645   3.614   3.608   7.949  0.0000  0.0000  0.0000
 1646CU      Cu 1646   3.616   3.610   8.310  0.0000  0.0000  0.0000
 1647CU      Cu 1647   3.618   3.791   8.133  0.0000  0.0000  0.0000
 1648CU      Cu 1648   3.796   3.609   8.131  0.0000  0.0000  0.0000
 1649CU      Cu 1649   3.795   3.786   7.953  0.0000  0.0000  0.0000
 1650CU      Cu 1650   3.799   3.792   8.306  0.0000  0.0000  0.0000
 1651CU      Cu 1651   3.979   3.610   7.952  0.0000  0.0000  0.0000
 1652CU      Cu 1652   3.978   3.612   8.307  0.0000  0.0000  0.0000
 1653CU      Cu 1653   3.978   3.792   8.127  0.0000  0.0000  0.0000
 1654CU      Cu 1654   4.159   3.612   8.127  0.0000  0.0000  0.0000
 1655CU      Cu 1655   4.158   3.793   7.942  0.0000  0.0000  0.0000
 1656CU      Cu 1656   4.155   3.794   8.306  0.0000  0.0000  0.0000
 1657CU      Cu 1657   0.012   3.976   7.953  0.0000  0.0000  0.0000
 1658CU      Cu 1658   0.007   3.975   8.306  0.0000  0.0000  0.0000
 1659CU      Cu 1659   0.010   4.156   8.128  0.0000  0.0000  0.0000
 1660CU      Cu 1660   0.180   3.975   8.133  0.0000  0.0000  0.0000
 1661CU      Cu 1661   0.182   4.153   7.953  0.0000  0.0000  0.0000
 1662CU      Cu 1662   0.174   4.155   8.312  0.0000  0.0000  0.0000
 1663CU      Cu 1663   0.363   3.976   7.949  0.0000  0.0000  0.0000
 1664CU      Cu 1664   0.358   3.974   8.315  0.0000  0.0000  0.0000
 1665CU      Cu 1665   0.360   4.153   8.138  0.0000  0.0000  0.0000
 1666CU      Cu 1666   0.542   3.974   8.135  0.0000  0.0000  0.0000
 1667CU      Cu 1667   0.543   4.157   7.963  0.0000  0.0000  0.0000
 1668CU      Cu 1668   0.542   4.154   8.316  0.0000  0.0000  0.0000
 1669CU      Cu 1669   0.721   3.976   7.948  0.0000  0.0000  0.0000
 1670CU      Cu 1670   0.724   3.974   8.315  0.0000  0.0000  0.0000
 1671CU      Cu 1671   0.725   4.155   8.136  0.0000  0.0000  0.0000
 1672CU      Cu 1672   0.903   3.976   8.131  0.0000  0.0000  0.0000
 1673CU      Cu 1673   0.901   4.158   7.947  0.0000  0.0000  0.0000
 1674CU      Cu 1674   0.906   4.157   8.314  0.0000  0.0000  0.0000
 1675CU      Cu 1675   1.082   3.977   7.947  0.0000  0.0000  0.0000
 1676CU      Cu 1676   1.084   3.977   8.313  0.0000  0.0000  0.0000
 1677CU      Cu 1677   1.083   4.159   8.131  0.0000  0.0000  0.0000
 1678CU      Cu 1678   1.261   3.978   8.134  0.0000  0.0000  0.0000
 1679CU      Cu 1679   1.263   4.159   7.948  0.0000  0.0000  0.0000
 1680CU      Cu 1680   1.265   4.161   8.312  0.0000  0.0000  0.0000
 1681CU      Cu 1681   1.445   3.984   7.963  0.0000  0.0000  0.0000
 1682CU      Cu 1682   1.446   3.980   8.310  0.0000  0.0000  0.0000
 1683CU      Cu 1683   1.446   4.164   8.133  0.0000  0.0000  0.0000
 1684CU      Cu 1684   1.628   3.980   8.134  0.0000  0.0000  0.0000
 1685CU      Cu 1685   1.628   4.159   7.947  0.0000  0.0000  0.0000
 1686CU      Cu 1686   1.629   4.162   8.310  0.0000  0.0000  0.0000
 1687CU      Cu 1687   1.807   3.977   7.951  0.0000  0.0000  0.0000
 1688CU      Cu 1688   1.809   3.977   8.309  0.0000  0.0000  0.0000
 1689CU      Cu 1689   1.809   4.159   8.129  0.0000  0.0000  0.0000
 1690CU      Cu 1690   1.988   3.977   8.129  0.0000  0.0000  0.0000
 1691CU      Cu 1691   1.989   4.157   7.943  0.0000  0.0000  0.0000
 1692CU      Cu 1692   1.988   4.157   8.309  0.0000  0.0000  0.0000
 1693CU      Cu 1693   2.167   3.975   7.946  0.0000  0.0000  0.0000
 1694CU      Cu 1694   2.168   3.975   8.308  0.0000  0.0000  0.0000
 1695CU      Cu 1695   2.169   4.156   8.128  0.0000  0.0000  0.0000
 1696CU      Cu 1696   2.349   3.975   8.128  0.0000  0.0000  0.0000
 1697CU      Cu 1697   2.349   4.156   7.947  0.0000  0.0000  0.0000
 1698CU      Cu 1698   2.348   4.155   8.308  0.0000  0.0000  0.0000
 1699CU      Cu 1699   2.531   3.974   7.945  0.0000  0.0000  0.0000
 1700CU      Cu 1700   2.529   3.974   8.309  0.0000  0.0000  0.0000
 1701CU      Cu 1701   2.530   4.155   8.128  0.0000  0.0000  0.0000
 1702CU      Cu 1702   2.711   3.974   8.128  0.0000  0.0000  0.0000
 1703CU      Cu 1703   2.710   4.156   7.945  0.0000  0.0000  0.0000
 1704CU      Cu 1704   2.709   4.155   8.309  0.0000  0.0000  0.0000
 1705CU      Cu 1705   2.892   3.975   7.944  0.0000  0.0000  0.0000
 1706CU      Cu 1706   2.889   3.975   8.310  0.0000  0.0000  0.0000
 1707CU      Cu 1707   2.890   4.156   8.128  0.0000  0.0000  0.0000
 1708CU      Cu 1708   3.069   3.975   8.132  0.0000  0.0000  0.0000
 1709CU      Cu 1709   3.074   4.156   7.949  0.0000  0.0000  0.0000
 1710CU      Cu 1710   3.072   4.156   8.310  0.0000  0.0000  0.0000
 1711CU      Cu 1711   3.256   3.977   7.968  0.0000  0.0000  0.0000
 1712CU      Cu 1712   3.254   3.975   8.308  0.0000  0.0000  0.0000
 1713CU      Cu 1713   3.254   4.160   8.133  0.0000  0.0000  0.0000
 1714CU      Cu 1714   3.439   3.975   8.135  0.0000  0.0000  0.0000
 1715CU      Cu 1715   3.435   4.154   7.950  0.0000  0.0000  0.0000
 1716CU      Cu 1716   3.439   4.156   8.309  0.0000  0.0000  0.0000
 1717CU      Cu 1717   3.614   3.972   7.949  0.0000  0.0000  0.0000
 1718CU      Cu 1718   3.621   3.975   8.307  0.0000  0.0000  0.0000
 1719CU      Cu 1719   3.618   4.155   8.127  0.0000  0.0000  0.0000
 1720CU      Cu 1720   3.797   3.974   8.125  0.0000  0.0000  0.0000
 1721CU      Cu 1721   3.795   4.154   7.939  0.0000  0.0000  0.0000
 1722CU      Cu 1722   3.800   4.155   8.303  0.0000  0.0000  0.0000
 1723CU      Cu 1723   3.975   3.971   7.941  0.0000  0.0000  0.0000
 1724CU      Cu 1724   3.976   3.975   8.303  0.0000  0.0000  0.0000
 1725CU      Cu 1725   3.976   4.155   8.120  0.0000  0.0000  0.0000
 1726CU      Cu 1726   4.154   3.974   8.124  0.0000  0.0000  0.0000
 1727CU      Cu 1727   4.157   4.155   7.939  0.0000  0.0000  0.0000
 1728CU      Cu 1728   4.153   4.155   8.302  0.0000  0.0000  0.0000
 1729MOL      C 1729   2.068   0.330   1.201 -0.0958 -0.3462  0.2125
 1729MOL     C1 1730   2.047   0.243   1.076 -0.8449 -0.1259 -0.5323
 1729MOL     C2 1731   2.167   0.245   0.976  0.0757  0.3716 -0.0982
 1729MOL     C3 1732   2.204   0.380   0.913 -0.4189 -0.6864  0.2910
 1729MOL     C4 1733   2.143   0.406   0.774 -0.1850  0.5304 -0.0671
 1729MOL     C5 1734   2.201   0.533   0.704  0.3501 -0.0992 -0.2295
 1729MOL      S 1735   2.381   0.544   0.675  0.0208 -0.0271 -0.6878
 1729MOL      H 1736   1.981   0.312   1.266  0.3113  0.3895  0.9768
 1729MOL     H1 1737   2.060   0.440   1.199  1.5992 -0.1837 -2.5569
 1729MOL     H2 1738   2.163   0.306   1.250 -0.1521  0.5214  0.7654
 1729MOL     H3 1739   1.956   0.271   1.022 -1.3082  0.8783  0.7298
 1729MOL     H4 1740   2.037   0.137   1.100  1.5981 -0.8040 -2.1128
 1729MOL     H5 1741   2.165   0.161   0.906  2.0504  0.3315 -0.1747
 1729MOL     H6 1742   2.254   0.218   1.037 -0.0766  1.2980  0.5491
 1729MOL     H7 1743   2.313   0.398   0.911 -0.6686  1.2595  1.4307
 1729MOL     H8 1744   2.174   0.464   0.976  2.2686  1.8292 -1.4865
 1729MOL     H9 1745   2.036   0.416   0.793 -0.1609  1.5047 -0.3742
 1729MOL    H10 1746   2.169   0.316   0.717 -0.6955 -0.8781  1.8066
 1729MOL    H11 1747   2.182   0.625   0.761 -2.3403  0.5514 -1.9890
 1729MOL    H12 1748   2.156   0.540   0.604  2.0056  2.7892 -0.8695
 1729MOL    H13 1749   2.405   0.416   0.639  1.7526  0.0370  0.1145
 1730MOL      C 1750   0.326   0.285   0.887  0.4660 -0.0530  0.2927
 1730MOL     C1 1751   0.298   0.393   0.777  0.0357 -0.6732 -0.1368
 1730MOL     C2 1752   0.421   0.454   0.701 -0.7022  0.5142  0.2581
 1730MOL     C3 1753   0.500   0.549   0.785 -0.0288  0.3351 -0.1505
 1730MOL     C4 1754   0.620   0.592   0.708  0.5511 -0.3929  0.2380
 1730MOL     C5 1755   0.725   0.669   0.787  0.1903 -0.3681 -0.0615
 1730MOL      S 1756   0.799   0.784   0.661  0.0469 -0.4329 -0.0914
 1730MOL      H 1757   0.367   0.326   0.981  0.1110  0.0663  0.3959
 1730MOL     H1 1758   0.399   0.211   0.852  0.1239 -1.3560  2.1665
 1730MOL     H2 1759   0.234   0.227   0.902  0.2177  0.2834  0.0668
 1730MOL     H3 1760   0.238   0.472   0.823 -0.8873 -2.3711  1.7503
 1730MOL     H4 1761   0.241   0.347   0.695  0.5110  2.7374 -2.5938
 1730MOL     H5 1762   0.399   0.514   0.612 -0.5177  1.3931  0.7837
 1730MOL     H6 1763   0.486   0.370   0.675 -0.4664  0.8189 -0.1391
 1730MOL     H7 1764   0.531   0.498   0.877 -0.9592 -1.2250 -0.6771
 1730MOL     H8 1765   0.432   0.627   0.824 -0.7611 -0.3846  0.0357
 1730MOL     H9 1766   0.584   0.656   0.627 -2.9876 -2.1347  0.2669
 1730MOL    H10 1767   0.674   0.508   0.662  1.6381  1.1004 -1.3318
 1730MOL    H11 1768   0.786   0.604   0.851  0.0471 -3.1373 -2.5232
 1730MOL    H12 1769   0.684   0.749   0.851  1.3306 -1.2994  1.9249
 1730MOL    H13 1770   0.900   0.835   0.734 -0.8913 -0.9433  1.6142
 1731MOL      C 1771   3.249   1.530   1.262  0.5394 -0.4941 -0.2597
 1731MOL     C1 1772   3.184   1.502   1.126 -0.4349 -0.9000 -0.2298
 1731MOL     C2 1773   3.251   1.381   1.054 -0.3567 -0.6917  0.4206
 1731MOL     C3 1774   3.198   1.367   0.909 -0.2945  0.6874 -0.1341
 1731MOL     C4 1775   3.275   1.256   0.834  0.2783  0.1763  0.1691
 1731MOL     C5 1776   3.235   1.238   0.686 -0.0954 -0.0758  0.1141
 1731MOL      S 1777   3.067   1.180   0.666  0.7859  0.3943  0.6236
 1731MOL      H 1778   3.358   1.518   1.257  0.5782 -1.6093  2.1053
 1731MOL     H1 1779   3.214   1.466   1.343  2.1418 -1.4992 -0.3243
 1731MOL     H2 1780   3.221   1.624   1.313  2.3352 -1.1310  2.0530
 1731MOL     H3 1781   3.193   1.592   1.065  0.5505  1.6870  3.3834
 1731MOL     H4 1782   3.078   1.479   1.145 -0.2846 -0.4058  1.4149
 1731MOL     H5 1783   3.225   1.289   1.109  0.7119 -1.0584  0.3464
 1731MOL     H6 1784   3.361   1.378   1.053 -0.2563  0.5360  2.3458
 1731MOL     H7 1785   3.219   1.461   0.857 -0.1645 -1.0838 -3.6218
 1731MOL     H8 1786   3.089   1.353   0.902 -0.0472 -0.8204 -1.7282
 1731MOL     H9 1787   3.259   1.159   0.884 -0.3683 -0.3025 -0.9281
 1731MOL    H10 1788   3.379   1.288   0.838  0.4394 -0.4312  2.3201
 1731MOL    H11 1789   3.306   1.169   0.638 -0.1723 -2.1199  2.7202
 1731MOL    H12 1790   3.242   1.339   0.643  0.0439 -0.4016 -0.6545
 1731MOL    H13 1791   3.057   1.138   0.539  0.4467 -0.9759  1.0795
 1732MOL      C 1792   1.230   1.104   1.147  0.3251 -0.0844 -0.0749
 1732MOL     C1 1793   1.282   1.177   1.019 -0.8080 -0.0417  0.6023
 1732MOL     C2 1794   1.352   1.308   1.050 -0.1068 -0.1497 -0.4501
 1732MOL     C3 1795   1.445   1.370   0.942 -0.7099  0.3239  0.3040
 1732MOL     C4 1796   1.374   1.434   0.823  0.3551 -0.2153 -0.1937
 1732MOL     C5 1797   1.455   1.524   0.726 -0.2690  0.5603  0.1527
 1732MOL      S 1798   1.595   1.434   0.644 -0.3173 -0.1059 -0.1913
 1732MOL      H 1799   1.166   1.018   1.122  0.7118 -0.8001  1.2967
 1732MOL     H1 1800   1.163   1.171   1.202 -1.0323 -3.3357  2.5581
 1732MOL     H2 1801   1.312   1.070   1.211  1.5070 -0.0600 -1.5215
 1732MOL     H3 1802   1.202   1.196   0.946 -0.3621 -4.8955 -1.5218
 1732MOL     H4 1803   1.351   1.109   0.968  0.5910  1.2391  0.7081
 1732MOL     H5 1804   1.413   1.294   1.140 -2.1012  0.6299  1.1007
 1732MOL     H6 1805   1.276   1.384   1.071  1.1103  0.6201  1.4748
 1732MOL     H7 1806   1.517   1.297   0.905 -0.7205  0.8265 -0.7309
 1732MOL     H8 1807   1.510   1.447   0.986  0.2003  1.8409 -3.3084
 1732MOL     H9 1808   1.289   1.494   0.860  0.5250  0.0502 -0.2342
 1732MOL    H10 1809   1.325   1.358   0.761  0.4398  0.1888 -0.7600
 1732MOL    H11 1810   1.493   1.616   0.771  0.6465  1.2860 -2.0106
 1732MOL    H12 1811   1.382   1.547   0.647 -0.0179 -0.8136 -0.5250
 1732MOL    H13 1812   1.632   1.535   0.562 -0.5892  0.7228  0.6791
 1733MOL      C 1813   3.177   1.861   1.089  0.2038  0.3904  0.0312
 1733MOL     C1 1814   3.149   2.012   1.085 -0.5294  0.1269 -0.5036
 1733MOL     C2 1815   3.199   2.072   0.956  0.0253 -0.1278 -0.0272
 1733MOL     C3 1816   3.354   2.102   0.948  0.6330 -0.1110  0.2738
 1733MOL     C4 1817   3.410   2.159   0.819  0.6075  0.6767 -0.2937
 1733MOL     C5 1818   3.361   2.094   0.687 -0.4434 -0.2976  0.2163
 1733MOL      S 1819   3.392   1.921   0.669 -0.4967 -0.0245  0.3419
 1733MOL      H 1820   3.146   1.812   0.995 -0.4818 -1.1631  1.0277
 1733MOL     H1 1821   3.124   1.819   1.176  0.1465  0.6667  0.1307
 1733MOL     H2 1822   3.285   1.857   1.106  0.2240  1.0227  0.0660
 1733MOL     H3 1823   3.201   2.067   1.164  0.1432 -0.3137 -0.6271
 1733MOL     H4 1824   3.041   2.015   1.102 -0.1844 -0.8656  2.5908
 1733MOL     H5 1825   3.143   2.164   0.935 -1.5222 -0.5925  1.7760
 1733MOL     H6 1826   3.180   2.009   0.868  2.4514 -0.0032 -0.7043
 1733MOL     H7 1827   3.401   2.006   0.974 -1.7507 -1.4669 -0.1214
 1733MOL     H8 1828   3.384   2.174   1.025  0.5305  0.6085 -0.3494
 1733MOL     H9 1829   3.517   2.157   0.842  0.4682 -0.9249  0.3255
 1733MOL    H10 1830   3.372   2.261   0.805 -2.0380 -0.3802 -1.5955
 1733MOL    H11 1831   3.407   2.144   0.602 -0.5497 -0.3482  0.1289
 1733MOL    H12 1832   3.255   2.113   0.667 -0.1545  0.9643 -0.2201
 1733MOL    H13 1833   3.526   1.920   0.654 -0.2515  1.2387  2.2575
 1734MOL      C 1834   0.911   2.564   1.067 -0.2055  0.5327 -0.5595
 1734MOL     C1 1835   0.800   2.482   1.135 -0.5118 -0.6582 -0.4627
 1734MOL     C2 1836   0.794   2.339   1.096  0.1157  0.6175  0.6210
 1734MOL     C3 1837   0.811   2.303   0.949 -0.2476  0.2641  0.0902
 1734MOL     C4 1838   0.719   2.369   0.849  0.3626  0.1292 -0.4728
 1734MOL     C5 1839   0.744   2.320   0.703 -0.0072  0.0819 -0.0735
 1734MOL      S 1840   0.686   2.150   0.682  0.2376  0.0671 -0.3305
 1734MOL      H 1841   0.903   2.671   1.088  1.9707  0.8010 -0.8611
 1734MOL     H1 1842   0.899   2.560   0.958 -1.5537  2.6959 -0.5699
 1734MOL     H2 1843   1.009   2.533   1.104 -1.0976 -0.1883  1.3055
 1734MOL     H3 1844   0.702   2.523   1.109 -0.9582 -0.9982  0.6237
 1734MOL     H4 1845   0.800   2.487   1.245 -1.0310 -0.9447 -0.4478
 1734MOL     H5 1846   0.691   2.311   1.121  0.7170 -0.5947  1.8404
 1734MOL     H6 1847   0.856   2.276   1.161 -0.9343  1.2951  2.3529
 1734MOL     H7 1848   0.807   2.194   0.931  1.5592  0.5031 -2.3782
 1734MOL     H8 1849   0.910   2.332   0.913 -1.2426  1.1537 -2.1840
 1734MOL     H9 1850   0.729   2.478   0.860 -0.0802 -0.0214  1.8546
 1734MOL    H10 1851   0.615   2.367   0.883  1.5989 -0.7599  3.7871
 1734MOL    H11 1852   0.852   2.324   0.683  0.1177 -1.4549  0.1270
 1734MOL    H12 1853   0.699   2.396   0.639  0.7250  0.9751  0.4432
 1734MOL    H13 1854   0.565   2.180   0.629 -0.1220 -0.7609  0.0015
 1735MOL      C 1855   1.620   1.879   0.692  0.0496  0.2188 -0.2392
 1735MOL     C1 1856   1.713   1.997   0.679 -0.0647 -0.0718  0.1128
 1735MOL     C2 1857   1.775   2.042   0.817  0.1266  0.1853 -0.6037
 1735MOL     C3 1858   1.876   2.157   0.811 -0.5566  0.3317  0.1588
 1735MOL     C4 1859   1.998   2.134   0.713 -0.1454 -0.0398 -1.0255
 1735MOL     C5 1860   2.101   2.250   0.716  0.1397  0.2523 -0.1343
 1735MOL      S 1861   2.019   2.411   0.669  0.0629 -0.0191  0.3639
 1735MOL      H 1862   1.554   1.863   0.606  0.1453 -1.2457 -0.0787
 1735MOL     H1 1863   1.555   1.899   0.778 -0.3674  0.6765 -0.6533
 1735MOL     H2 1864   1.675   1.785   0.709 -1.1709 -0.4903 -0.0466
 1735MOL     H3 1865   1.651   2.068   0.623  0.4419  0.1916 -0.1187
 1735MOL     H4 1866   1.800   1.973   0.616  1.5439  1.6037  1.5477
 1735MOL     H5 1867   1.825   1.964   0.876 -1.5681 -0.8164 -0.4054
 1735MOL     H6 1868   1.693   2.063   0.888  0.2356  2.0450 -0.9783
 1735MOL     H7 1869   1.915   2.184   0.910  0.6329 -3.3021  0.8336
 1735MOL     H8 1870   1.819   2.237   0.762  1.4601  2.8864  1.6990
 1735MOL     H9 1871   1.953   2.140   0.614 -2.0565  1.6092 -0.1107
 1735MOL    H10 1872   2.053   2.041   0.734  0.2938  0.4482  0.0573
 1735MOL    H11 1873   2.180   2.237   0.641 -0.4536 -0.1716 -0.7006
 1735MOL    H12 1874   2.151   2.258   0.813  0.2184  0.9861 -0.2248
 1735MOL    H13 1875   1.922   2.411   0.763 -0.0445  1.9150  0.2826
 1736MOL      C 1876   3.555   3.510   0.868 -0.4346  0.1554  0.2741
 1736MOL     C1 1877   3.499   3.492   0.727 -0.1954  0.3081  0.2051
 1736MOL     C2 1878   3.352   3.439   0.722  0.5195 -0.2243  0.4278
 1736MOL     C3 1879   3.350   3.287   0.724 -0.1248 -0.1804 -0.2040
 1736MOL     C4 1880   3.205   3.238   0.719 -0.5387 -0.0961  0.4458
 1736MOL     C5 1881   3.197   3.092   0.690  0.1251 -0.2815  0.3446
 1736MOL      S 1882   3.018   3.043   0.671 -0.2152 -0.0807 -0.2205
 1736MOL      H 1883   3.476   3.561   0.925 -1.8504  1.7476 -2.8412
 1736MOL     H1 1884   3.636   3.583   0.863 -1.4443  1.2611 -0.4471
 1736MOL     H2 1885   3.589   3.419   0.918  0.9336 -0.9837 -2.5197
 1736MOL     H3 1886   3.568   3.433   0.666 -0.5663 -1.1887  1.1778
 1736MOL     H4 1887   3.507   3.594   0.687  3.4035 -0.4823 -1.4935
 1736MOL     H5 1888   3.307   3.475   0.628 -1.1758 -0.2210  1.1969
 1736MOL     H6 1889   3.292   3.474   0.807 -0.8002 -1.4280  0.0273
 1736MOL     H7 1890   3.412   3.248   0.806 -0.2020 -0.3617 -0.2300
 1736MOL     H8 1891   3.400   3.242   0.636  2.1073 -1.0758  1.4138
 1736MOL     H9 1892   3.146   3.296   0.647  1.5566 -1.2881 -2.4025
 1736MOL    H10 1893   3.148   3.259   0.810  1.4122  1.8963  1.3101
 1736MOL    H11 1894   3.252   3.036   0.767  0.4717 -1.1452 -0.5187
 1736MOL    H12 1895   3.238   3.083   0.589  1.3442  1.8344  0.5889
 1736MOL    H13 1896   2.974   3.050   0.798 -0.3618 -0.3223 -0.2574
 1737MOL      C 1897   0.826   3.099   1.277  0.3058 -0.4882 -0.2053
 1737MOL     C1 1898   0.898   3.060   1.150 -0.1014 -0.1076  0.2896
 1737MOL     C2 1899   0.954   3.193   1.086 -0.4624  0.2883  0.4073
 1737MOL     C3 1900   0.997   3.168   0.935  0.0172 -0.0098 -0.4632
 1737MOL     C4 1901   1.017   3.308   0.862  0.0176 -0.0348  0.0737
 1737MOL     C5 1902   1.017   3.286   0.708 -0.3141  0.3150  0.4261
 1737MOL      S 1903   1.184   3.215   0.662  0.3528  0.1504 -0.4433
 1737MOL      H 1904   0.750   3.175   1.254 -1.8018 -1.7784  2.0164
 1737MOL     H1 1905   0.888   3.147   1.354  0.0805  0.1701 -0.4271
 1737MOL     H2 1906   0.776   3.013   1.322  1.1267 -0.3447  1.0217
 1737MOL     H3 1907   0.819   3.016   1.089 -1.6244  1.8444  0.7312
 1737MOL     H4 1908   0.974   2.983   1.169 -1.9592 -1.8637  0.8975
 1737MOL     H5 1909   1.044   3.227   1.138  0.0529 -0.0002 -0.2798
 1737MOL     H6 1910   0.876   3.270   1.084 -1.2179 -0.4685 -1.3609
 1737MOL     H7 1911   0.917   3.110   0.888  0.9595 -0.9198 -0.9747
 1737MOL     H8 1912   1.086   3.105   0.923  0.4014 -0.2799  2.8974
 1737MOL     H9 1913   1.114   3.343   0.898  0.4914 -2.6720  1.6303
 1737MOL    H10 1914   0.943   3.382   0.894 -0.4510 -0.4520 -0.0363
 1737MOL    H11 1915   1.005   3.381   0.656 -0.9479  0.1363  0.2377
 1737MOL    H12 1916   0.936   3.220   0.675  0.0689  1.4564 -3.1882
 1737MOL    H13 1917   1.251   3.331   0.675 -0.3342  0.5473 -0.4068
 1738MOL      C 1918   2.096   3.673   1.148  0.4387 -0.1443 -0.0380
 1738MOL     C1 1919   2.007   3.789   1.094  0.3568 -0.1895  0.0876
 1738MOL     C2 1920   2.054   3.810   0.950 -0.2186 -0.6441  0.6305
 1738MOL     C3 1921   2.019   3.693   0.856  0.1355  0.5873  1.2921
 1738MOL     C4 1922   2.041   3.730   0.701 -0.4306  0.1494 -0.2733
 1738MOL     C5 1923   2.192   3.759   0.669  0.4513  0.2482  0.3760
 1738MOL      S 1924   2.298   3.609   0.653  0.3315  0.0961 -0.1829
 1738MOL      H 1925   2.071   3.652   1.253  0.3750 -3.6124 -0.6515
 1738MOL     H1 1926   2.204   3.692   1.143  0.2786  0.7586 -0.3139
 1738MOL     H2 1927   2.085   3.580   1.092 -2.8495  0.4340 -0.6053
 1738MOL     H3 1928   2.030   3.876   1.157  0.0028 -0.5006  0.6514
 1738MOL     H4 1929   1.900   3.769   1.101  0.1564  0.3393 -1.1778
 1738MOL     H5 1930   2.159   3.842   0.945  0.1717 -1.8627  0.6393
 1738MOL     H6 1931   1.985   3.882   0.905 -1.1888 -2.3902 -0.8304
 1738MOL     H7 1932   1.914   3.663   0.872  0.0682  0.4615  0.6216
 1738MOL     H8 1933   2.084   3.609   0.883  0.2447  0.2265 -0.0361
 1738MOL     H9 1934   1.978   3.811   0.662 -0.0569 -0.5045 -2.3231
 1738MOL    H10 1935   2.018   3.642   0.641  1.4680 -2.6362  2.7629
 1738MOL    H11 1936   2.227   3.830   0.745  1.8673 -0.5906  0.5514
 1738MOL    H12 1937   2.200   3.809   0.572 -1.2933 -3.8871 -2.1912
 1738MOL    H13 1938   2.285   3.573   0.782 -0.2126  0.3072 -0.1763
 1739CO2      C 1939   4.026   2.395   3.543 -0.3707 -0.3302  0.2414
 1739CO2     O1 1940   3.941   2.460   3.500  0.4417  0.3554 -0.3712
 1739CO2     O2 1941   4.110   2.329   3.584 -0.3074 -0.0509  0.5662
 1740CO2      C 1942   2.994   1.432   4.764  0.1219 -0.0356 -0.3154
 1740CO2     O1 1943   2.890   1.477   4.786 -0.0553 -0.4553 -0.2809
 1740CO2     O2 1944   3.098   1.390   4.743  0.0650 -0.4376  0.1882
 1741CO2      C 1945   0.302   4.149   2.875 -0.2301 -0.2555  0.0317
 1741CO2     O1 1946   0.352   4.145   2.772 -0.1714  0.0367  0.0474
 1741CO2     O2 1947   0.254   4.159   2.979 -0.4637 -0.0088 -0.1010
 1742CO2      C 1948   1.199   4.277   7.184 -0.2265 -0.1102 -0.1844
 1742CO2     O1 1949   1.280   4.318   7.113 -0.0070 -0.0863  0.0824
 1742CO2     O2 1950   1.118   4.234   7.253 -0.4176  0.2832 -0.1569
 1743CO2      C 1951   0.704   2.015   2.241  0.5045  0.3501 -0.0105
 1743CO2     O1 1952   0.745   2.060   2.338 -0.0434 -0.0147  0.4019
 1743CO2     O2 1953   0.659   1.966   2.147  0.5420 -0.2571  0.2790
 1744CO2      C 1954   0.587   2.850   2.453  0.5217 -0.2525 -0.1366
 1744CO2     O1 1955   0.522   2.923   2.515  0.7495 -0.0229 -0.1675
 1744CO2     O2 1956   0.649   2.775   2.393  0.6997  0.1887 -0.5082
 1745CO2      C 1957   0.079   3.005   3.071  0.4590 -0.4752  0.2360
 1745CO2     O1 1958   0.155   3.069   3.129 -0.1455  0.0407  0.4724
 1745CO2     O2 1959   0.002   2.942   3.014  0.3244 -0.4856  0.4292
 1746CO2      C 1960   0.673   0.382   1.858 -1.0342  0.1885  0.1665
 1746CO2     O1 1961   0.669   0.496   1.860 -0.8946  0.1867  0.7796
 1746CO2     O2 1962   0.678   0.267   1.862 -1.0387  0.2027  0.6361
 1747CO2      C 1963   1.765   0.760   4.835  0.0668 -0.2063 -0.4305
 1747CO2     O1 1964   1.771   0.673   4.909 -0.3108  0.0894 -0.0439
 1747CO2     O2 1965   1.768   0.848   4.761  0.0106  0.2837  0.1434
 1748CO2      C 1966   0.354   3.015   2.831 -0.0775 -0.3827  0.4089
 1748CO2     O1 1967   0.452   3.074   2.838 -0.1126 -0.2390 -0.1991
 1748CO2     O2 1968   0.256   2.955   2.823 -0.0358 -0.4167  0.1213
 1749CO2      C 1969   1.383   1.786   3.833 -0.4699 -0.0451  0.1415
 1749CO2     O1 1970   1.358   1.895   3.806 -0.7189 -0.2608 -0.5012
 1749CO2     O2 1971   1.404   1.677   3.862  0.2264 -0.1166 -0.5898
 1750CO2      C 1972   0.817   2.378   6.902 -0.5401 -0.2214  0.1319
 1750CO2     O1 1973   0.901   2.301   6.912 -0.4372 -0.1124  0.1069
 1750CO2     O2 1974   0.728   2.452   6.904 -0.4707 -0.1201 -0.4629
 1751CO2      C 1975   0.133   0.603   1.597 -0.1266 -0.0875  0.0026
 1751CO2     O1 1976   0.196   0.691   1.633 -0.3951  0.1362 -0.0669
 1751CO2     O2 1977   0.069   0.513   1.564  0.0906 -0.2516  0.0299
 1752CO2      C 1978   1.947   1.308   7.225 -0.0888 -0.3072 -0.1683
 1752CO2     O1 1979   1.979   1.207   7.269  0.4638  0.0924  0.3600
 1752CO2     O2 1980   1.920   1.408   7.175  0.6096 -0.1390 -0.2227
 1753CO2      C 1981   0.906   4.118   0.670  0.1468  0.7366 -0.6962
 1753CO2     O1 1982   0.792   4.106   0.682  0.1551  1.0960 -0.1943
 1753CO2     O2 1983   1.018   4.141   0.664  0.3908 -0.0590  0.4698
 1754CO2      C 1984   2.957   1.258   4.037 -0.4915  0.3353 -0.3920
 1754CO2     O1 1985   3.069   1.242   4.018 -0.4668  0.0993 -0.0516
 1754CO2     O2 1986   2.847   1.278   4.063 -0.3741  0.7657 -0.2157
 1755CO2      C 1987   0.511   2.169   2.585  0.5256 -0.0952 -0.0322
 1755CO2     O1 1988   0.579   2.080   2.608  0.1298 -0.3360  0.2391
 1755CO2     O2 1989   0.441   2.259   2.567  0.4112 -0.0117  0.7599
 1756CO2      C 1990   0.006   0.870   5.613 -0.0233  0.1404  0.3343
 1756CO2     O1 1991   0.098   0.814   5.653  0.2359  0.3222  0.0087
 1756CO2     O2 1992  -0.089   0.923   5.577  0.1376  0.0857 -0.1736
 1757CO2      C 1993   3.343   0.227   4.795 -0.4153 -0.3561  0.2649
 1757CO2     O1 1994   3.295   0.178   4.703 -0.1248  0.0180 -0.0873
 1757CO2     O2 1995   3.397   0.278   4.883 -0.3671  0.7586 -0.3959
 1758CO2      C 1996   0.392   0.933   5.656  0.0911  0.2027  0.2876
 1758CO2     O1 1997   0.348   1.014   5.587  0.3938 -0.5256 -0.7853
 1758CO2     O2 1998   0.430   0.847   5.723  0.2194  0.4875  0.5861
 1759CO2      C 1999   2.659   1.114   3.858  0.3062  0.1871  0.1537
 1759CO2     O1 2000   2.642   1.177   3.764 -0.6727 -0.1284  0.1132
 1759CO2     O2 2001   2.678   1.048   3.950  0.0459  0.1007  0.1458
 1760CO2      C 2002   0.658   2.122   3.292 -0.9491 -0.4417 -0.5937
 1760CO2     O1 2003   0.619   2.032   3.351 -0.1494 -0.2040  0.3193
 1760CO2     O2 2004   0.702   2.205   3.225 -0.4126 -0.4279 -0.2332
 1761CO2      C 2005   1.856   2.920   3.806  0.3088 -0.3557 -0.1809
 1761CO2     O1 2006   1.901   2.887   3.907  0.7597 -0.0859 -0.2928
 1761CO2     O2 2007   1.803   2.951   3.710 -0.3368 -0.0130  0.2801
 1762CO2      C 2008   2.155   0.009   5.568 -0.1987 -0.0101  0.2008
 1762CO2     O1 2009   2.122   0.089   5.493 -0.0182  0.1900  0.3366
 1762CO2     O2 2010   2.189  -0.074   5.640 -0.3269  0.1465  0.4432
 1763CO2      C 2011   1.483   4.020   2.823  0.6179 -0.0426 -0.2310
 1763CO2     O1 2012   1.472   4.043   2.711  0.2616  0.9209 -0.0094
 1763CO2     O2 2013   1.492   4.004   2.937 -0.4452 -0.1991 -0.1575
 1764CO2      C 2014   3.680   3.839   3.776 -0.0324 -0.0368 -0.2249
 1764CO2     O1 2015   3.762   3.913   3.807  0.0068 -0.1256 -0.1153
 1764CO2     O2 2016   3.598   3.764   3.746  0.0957  0.1134 -0.9648
 1765CO2      C 2017   0.649   1.800   7.011 -0.2942  0.2908 -0.0208
 1765CO2     O1 2018   0.668   1.846   6.907 -0.6140  0.3138 -0.0692
 1765CO2     O2 2019   0.628   1.758   7.116  0.0547 -0.0115 -0.0682
 1766CO2      C 2020   0.493   0.224   4.297  1.1629 -0.3337  0.4173
 1766CO2     O1 2021   0.460   0.133   4.235 -0.3312  0.3249  0.2115
 1766CO2     O2 2022   0.525   0.315   4.360  0.3458  0.4486 -0.2824
 1767CO2      C 2023   4.282   0.303   2.163  0.3927  0.3117  0.3547
 1767CO2     O1 2024   4.237   0.408   2.148 -0.1446  0.0215 -0.1099
 1767CO2     O2 2025   4.322   0.196   2.177 -0.2464  0.0065 -0.0860
 1768CO2      C 2026   2.808   0.632   4.573 -0.9061  0.9274 -0.1488
 1768CO2     O1 2027   2.853   0.646   4.468 -0.3302 -0.4888 -0.1112
 1768CO2     O2 2028   2.768   0.615   4.679 -0.0232  0.3384  0.1021
 1769CO2      C 2029   4.309   0.446   1.869  0.1861  0.1861 -0.2404
 1769CO2     O1 2030   4.341   0.554   1.895  0.5359  0.1422 -0.4846
 1769CO2     O2 2031   4.278   0.337   1.853  0.2347  0.2482 -0.7633
 1770CO2      C 2032   2.599   3.175   3.290 -0.0727  1.1520  0.3924
 1770CO2     O1 2033   2.697   3.164   3.231 -0.3535 -0.0695  0.1320
 1770CO2     O2 2034   2.501   3.175   3.349 -0.5806  0.4044 -0.4173
 1771CO2      C 2035   2.944   1.198   4.438  0.5179  0.4614  0.2821
 1771CO2     O1 2036   2.920   1.109   4.370  0.2103  0.0926  0.8699
 1771CO2     O2 2037   2.969   1.287   4.506 -0.0594  0.8356  0.0141
 1772CO2      C 2038   2.014   3.086   1.491  0.5862 -0.0819 -0.2060
 1772CO2     O1 2039   2.001   2.983   1.541  0.1292  0.0517 -0.0444
 1772CO2     O2 2040   2.028   3.188   1.441 -0.0951  0.0751 -0.0819
 1773CO2      C 2041   2.530   4.244   5.914  0.1964  0.2129  0.8349
 1773CO2     O1 2042   2.610   4.245   5.832  0.0143 -0.3566  0.6405
 1773CO2     O2 2043   2.450   4.250   5.997 -0.0780 -0.3339  0.6159
 1774CO2      C 2044   4.118   3.120   0.962 -0.0185  0.5871 -0.6182
 1774CO2     O1 2045   4.229   3.148   0.966  0.0209  0.3876 -0.2808
 1774CO2     O2 2046   4.007   3.090   0.954  0.0553  0.0999  0.0925
 1775CO2      C 2047   2.953   0.963   4.749  0.3188  0.2124 -0.1201
 1775CO2     O1 2048   3.025   1.048   4.724  0.3614  0.1254 -0.2950
 1775CO2     O2 2049   2.884   0.874   4.772  0.1112  0.3675 -0.1424
 1776CO2      C 2050   1.863   4.135   1.095 -0.1404  0.4584  0.0625
 1776CO2     O1 2051   1.807   4.080   1.179  0.5944 -0.2333  0.1132
 1776CO2     O2 2052   1.922   4.184   1.009  0.2230  0.6822  0.4393
 1777CO2      C 2053   0.352   1.145   4.412 -0.5549  0.5525 -0.3123
 1777CO2     O1 2054   0.376   1.138   4.300 -0.0036 -0.2569 -0.1535
 1777CO2     O2 2055   0.333   1.149   4.525  0.7050 -0.0160 -0.0581
 1778CO2      C 2056   1.334   3.327   1.184  0.4582 -0.0799  0.0552
 1778CO2     O1 2057   1.331   3.222   1.232 -1.2252 -0.0092  0.1804
 1778CO2     O2 2058   1.334   3.432   1.138  1.1909  0.1161  0.5010
 1779CO2      C 2059   2.735   3.897   5.983 -0.3591 -0.2766 -0.0968
 1779CO2     O1 2060   2.634   3.895   6.038 -0.4170  0.1700 -0.1839
 1779CO2     O2 2061   2.838   3.898   5.932 -0.4098 -0.5297 -0.2012
 1780CO2      C 2062   1.461   2.664   6.060  0.6147  0.4306  0.0979
 1780CO2     O1 2063   1.516   2.591   5.990  0.3606  0.3288  0.0026
 1780CO2     O2 2064   1.404   2.740   6.123 -0.6278 -0.2680 -0.1607
 1781CO2      C 2065   0.853   3.083   6.433  0.0071  0.4462 -0.3754
 1781CO2     O1 2066   0.964   3.106   6.456  0.0996 -0.4865  0.1880
 1781CO2     O2 2067   0.743   3.057   6.414  0.0938 -0.0488 -0.2083
 1782CO2      C 2068   1.302   1.432   6.342  0.4604 -0.0160  0.1616
 1782CO2     O1 2069   1.361   1.530   6.333 -0.1301  0.3228 -0.1051
 1782CO2     O2 2070   1.247   1.332   6.352  0.0774  0.1588 -0.1752
 1783CO2      C 2071   0.245   3.339   3.259 -0.3900  0.3448 -0.0645
 1783CO2     O1 2072   0.340   3.289   3.300 -0.4753 -0.1644 -0.4787
 1783CO2     O2 2073   0.151   3.391   3.219 -0.2377  0.7524  0.1021
 1784CO2      C 2074   3.214   2.067   2.057  0.1535 -0.0137  0.6266
 1784CO2     O1 2075   3.144   1.976   2.064 -0.3408  0.2334 -0.7300
 1784CO2     O2 2076   3.286   2.156   2.045  0.3960 -0.1960  0.7191
 1785CO2      C 2077   1.653   2.570   3.862  0.2600 -0.1378 -0.0814
 1785CO2     O1 2078   1.729   2.656   3.865  0.1875 -0.0829  0.1486
 1785CO2     O2 2079   1.580   2.481   3.858  0.0786 -0.0039  0.2635
 1786CO2      C 2080   0.425   4.268   7.728 -0.9518 -0.1427 -0.2710
 1786CO2     O1 2081   0.401   4.156   7.736  0.2761 -0.4137 -0.2692
 1786CO2     O2 2082   0.456   4.379   7.725  0.2765 -0.4552  0.1286
 1787CO2      C 2083   1.804   3.152   2.884  0.3686 -0.5611 -0.4162
 1787CO2     O1 2084   1.724   3.185   2.808  0.2531 -0.4273 -0.2379
 1787CO2     O2 2085   1.884   3.119   2.960  0.0007  0.6885  0.5585
 1788CO2      C 2086   3.967   4.095   6.333 -0.0473  0.0229 -0.5117
 1788CO2     O1 2087   3.994   4.154   6.428  0.1470  0.6190 -0.9310
 1788CO2     O2 2088   3.941   4.038   6.236 -0.0607 -0.2408 -0.3541
 1789CO2      C 2089   3.133   2.081   6.518  0.3765  1.4850  0.1222
 1789CO2     O1 2090   3.225   2.058   6.584  0.0160 -0.2077  0.0858
 1789CO2     O2 2091   3.039   2.098   6.454 -0.3026 -0.5025  0.5053
 1790CO2      C 2092   3.948   2.263   7.258 -0.1688 -0.0929 -0.6707
 1790CO2     O1 2093   3.968   2.376   7.267 -0.6277 -0.0506 -0.0918
 1790CO2     O2 2094   3.928   2.150   7.252  0.4495 -0.2715  0.4068
 1791CO2      C 2095   2.654   1.321   6.965  0.1323  0.0824  0.0211
 1791CO2     O1 2096   2.557   1.349   7.019  0.0639 -0.9776  0.4709
 1791CO2     O2 2097   2.753   1.295   6.912  0.0945  0.0642 -0.0416
 1792CO2      C 2098   1.940   3.405   2.448 -0.1463  0.3370 -0.0084
 1792CO2     O1 2099   1.932   3.500   2.383 -0.0979  0.2093 -0.1995
 1792CO2     O2 2100   1.952   3.307   2.505 -0.0066  0.2222 -0.2356
 1793CO2      C 2101   2.956   1.911   3.735  0.0784  0.5278  0.2145
 1793CO2     O1 2102   2.925   1.918   3.845  0.0528  0.1079  0.2361
 1793CO2     O2 2103   2.986   1.892   3.625  0.0711 -0.6161  0.3906
 1794CO2      C 2104   2.005   3.916   7.694 -0.2052  0.4492  0.5705
 1794CO2     O1 2105   1.914   3.985   7.690 -0.2135  0.4076  0.0116
 1794CO2     O2 2106   2.096   3.845   7.696 -0.7135 -0.2478 -0.1908
 1795CO2      C 2107   2.493   1.899   1.865  0.4848 -0.8102 -1.3276
 1795CO2     O1 2108   2.456   1.813   1.931  0.1660  0.1900 -0.1425
 1795CO2     O2 2109   2.531   1.984   1.798  0.0455 -0.0400 -0.6261
 1796CO2      C 2110   2.953   2.157   1.573 -0.8934 -0.8228 -0.2418
 1796CO2     O1 2111   3.025   2.081   1.619 -0.2946 -0.0546  0.1164
 1796CO2     O2 2112   2.887   2.236   1.523  0.1067  0.1479 -0.0767
 1797CO2      C 2113   3.874   1.790   5.873 -0.4204 -0.5923 -0.0252
 1797CO2     O1 2114   3.853   1.809   5.762 -0.9852 -0.2638  0.1351
 1797CO2     O2 2115   3.900   1.777   5.984  0.4676 -0.2167 -0.1829
 1798CO2      C 2116   2.744   2.201   0.932  0.0737  0.4320 -0.2350
 1798CO2     O1 2117   2.631   2.185   0.948  0.1838 -0.4769 -0.3071
 1798CO2     O2 2118   2.857   2.214   0.922  0.1370  0.0609 -0.0015
 1799CO2      C 2119   1.277   0.287   5.762 -0.0300 -0.1083 -0.1980
 1799CO2     O1 2120   1.265   0.183   5.715  0.1865 -0.4998  0.5803
 1799CO2     O2 2121   1.284   0.393   5.807  0.1588 -0.0347 -0.3974
 1800CO2      C 2122   1.765   1.646   1.741  0.6894 -0.0255 -0.5305
 1800CO2     O1 2123   1.705   1.581   1.668  0.4197  0.2375 -0.5440
 1800CO2     O2 2124   1.828   1.712   1.811 -0.4122 -0.3146  0.7701
 1801CO2      C 2125   3.425   1.228   4.390  0.2510 -0.0469 -0.5040
 1801CO2     O1 2126   3.418   1.341   4.370  0.0172  0.0107 -0.1111
 1801CO2     O2 2127   3.440   1.117   4.412  0.3935 -0.0694 -0.7102
 1802CO2      C 2128   1.369   3.048   0.913  0.5754 -0.3175 -0.5325
 1802CO2     O1 2129   1.363   2.934   0.918  0.4246 -0.3040 -0.3886
 1802CO2     O2 2130   1.367   3.163   0.917 -0.4722 -0.3476  0.5029
 1803CO2      C 2131   2.983   3.156   7.705  0.2171  0.8241 -0.0295
 1803CO2     O1 2132   2.886   3.093   7.706  0.7028  0.0709  0.5440
 1803CO2     O2 2133   3.079   3.218   7.707  0.2444  0.7972 -0.4300
 1804CO2      C 2134   2.937   0.107   3.871 -0.0356 -0.4487  0.0406
 1804CO2     O1 2135   3.052   0.109   3.865  0.0226 -0.5046  0.9747
 1804CO2     O2 2136   2.823   0.107   3.869 -0.0276 -0.4068 -0.5307
 1805CO2      C 2137   0.164   2.728   3.369  0.1750  0.6391 -0.1570
 1805CO2     O1 2138   0.240   2.660   3.316 -0.2044  0.1414 -0.0633
 1805CO2     O2 2139   0.087   2.797   3.420 -0.3273 -0.1938  0.2359
 1806CO2      C 2140   1.312   1.975   5.808  0.7161  0.1412  0.7124
 1806CO2     O1 2141   1.248   1.891   5.852  0.6963 -0.3761 -0.2821
 1806CO2     O2 2142   1.366   2.065   5.762 -0.0097  0.2281  0.0106
 1807CO2      C 2143   3.551   2.360   2.992  0.3121 -0.2100  0.1744
 1807CO2     O1 2144   3.466   2.437   3.001  0.0546 -0.5412  0.6305
 1807CO2     O2 2145   3.629   2.277   2.977  0.0011 -0.4627 -0.0656
 1808CO2      C 2146   2.948   2.386   4.082  0.1907 -0.1414  0.1862
 1808CO2     O1 2147   2.982   2.279   4.056 -0.1562 -0.3139  0.4380
 1808CO2     O2 2148   2.913   2.493   4.106 -0.0082 -0.1068 -0.2616
 1809CO2      C 2149   3.539   0.785   0.652 -0.0982  0.3856  0.4908
 1809CO2     O1 2150   3.589   0.887   0.631  0.4604 -0.0729 -0.4515
 1809CO2     O2 2151   3.487   0.685   0.674  0.3028 -0.1131 -0.7663
 1810CO2      C 2152   3.463   2.421   4.114  0.4233  0.2324 -0.1942
 1810CO2     O1 2153   3.357   2.452   4.083  0.3218 -0.1090 -0.1920
 1810CO2     O2 2154   3.569   2.390   4.145  0.3731  0.4613  0.2140
 1811CO2      C 2155   4.219   0.526   5.438 -0.1221 -0.2618  0.5018
 1811CO2     O1 2156   4.195   0.447   5.358  0.0829  0.3468 -0.1806
 1811CO2     O2 2157   4.235   0.609   5.516 -0.1492  0.1238  0.1022
 1812CO2      C 2158   2.597   3.532   6.909  0.1485  0.5256 -0.3667
 1812CO2     O1 2159   2.501   3.564   6.855 -0.3027  0.0615  0.1507
 1812CO2     O2 2160   2.696   3.504   6.961 -0.2359  0.0715  0.1309
 1813CO2      C 2161   3.713   1.213   0.668 -0.0430 -0.4479  0.3091
 1813CO2     O1 2162   3.614   1.265   0.640  0.4156  0.2967  0.0429
 1813CO2     O2 2163   3.813   1.163   0.693  0.1849  0.1659  0.6446
 1814CO2      C 2164   0.832   3.406   7.185 -0.2259  0.2633 -0.2705
 1814CO2     O1 2165   0.747   3.445   7.253  0.2085  0.3270  0.2418
 1814CO2     O2 2166   0.915   3.368   7.115 -0.5234  0.0018 -0.4843
 1815CO2      C 2167   4.251   0.249   3.792 -0.2741  0.5652  0.8425
 1815CO2     O1 2168   4.317   0.337   3.758 -0.0861  0.2340  0.3315
 1815CO2     O2 2169   4.175   0.170   3.827 -0.3704  0.3414  0.1436
 1816CO2      C 2170   2.337   3.954   3.865 -0.3121  0.1160  0.0614
 1816CO2     O1 2171   2.363   4.030   3.783 -0.4804 -0.4007 -0.4730
 1816CO2     O2 2172   2.313   3.880   3.949  0.5025 -0.0712  0.1373
 1817CO2      C 2173   2.171   1.673   2.175 -0.3472  0.4092  0.2137
 1817CO2     O1 2174   2.140   1.695   2.066 -0.2936 -0.2700  0.0545
 1817CO2     O2 2175   2.203   1.644   2.281 -0.3989 -0.5285 -0.0095
 1818CO2      C 2176   1.117   4.156   2.853  0.5506 -0.0311 -0.4465
 1818CO2     O1 2177   1.232   4.161   2.843  0.5479 -0.2122 -0.5692
 1818CO2     O2 2178   1.003   4.159   2.862  0.5442  0.2632 -0.6241
 1819CO2      C 2179   2.144   0.456   2.864 -0.8008 -0.0860 -0.2924
 1819CO2     O1 2180   2.191   0.551   2.819 -0.1980 -0.2177  0.0532
 1819CO2     O2 2181   2.104   0.358   2.908 -0.7067  0.2940  0.6579
 1820CO2      C 2182   2.403   0.219   2.722 -1.0553  0.4084 -0.2108
 1820CO2     O1 2183   2.411   0.320   2.668  0.5651  0.4498  0.0424
 1820CO2     O2 2184   2.392   0.118   2.775 -0.1544  0.5518  0.2699
 1821CO2      C 2185   1.577   3.662   1.015  0.1045 -0.2526  0.3216
 1821CO2     O1 2186   1.661   3.648   0.939 -0.0196  0.3917  0.0560
 1821CO2     O2 2187   1.491   3.683   1.088 -0.0267 -0.1229  0.1333
 1822CO2      C 2188   0.451   2.005   2.990  0.2511 -0.1731 -0.2971
 1822CO2     O1 2189   0.427   2.028   3.100 -0.0265  0.2642 -0.4488
 1822CO2     O2 2190   0.480   1.989   2.880 -0.3533 -0.2770 -0.4424
 1823CO2      C 2191   1.993   3.703   2.716  0.1856  0.0855  0.1763
 1823CO2     O1 2192   2.063   3.612   2.709 -1.0682 -0.8334 -0.8688
 1823CO2     O2 2193   1.926   3.796   2.723  0.0046 -0.0416  0.1362
 1824CO2      C 2194   3.361   2.845   4.034 -0.7333 -0.3373 -0.1244
 1824CO2     O1 2195   3.426   2.752   4.014 -0.0177  0.2719 -0.6834
 1824CO2     O2 2196   3.294   2.936   4.054  0.0224  0.1248  0.3503
 1825CO2      C 2197   2.530   0.169   5.635 -0.1168 -0.1803  0.1777
 1825CO2     O1 2198   2.604   0.234   5.693  0.0330 -0.2086  0.0191
 1825CO2     O2 2199   2.448   0.108   5.581 -0.2405 -0.5607  0.7954
 1826CO2      C 2200   1.412   2.541   4.426  0.2159 -0.1746  0.2922
 1826CO2     O1 2201   1.316   2.480   4.441 -0.1800  0.3347 -0.1248
 1826CO2     O2 2202   1.505   2.608   4.411 -0.1059  0.2624  0.2132
 1827CO2      C 2203   2.699   2.461   4.554 -0.0778  0.3047  0.1906
 1827CO2     O1 2204   2.774   2.381   4.521 -0.3140  0.3547 -0.4792
 1827CO2     O2 2205   2.624   2.542   4.587  0.3363  0.5317  0.5903
 1828CO2      C 2206   2.181   1.977   4.243  0.0298  0.5208 -0.3567
 1828CO2     O1 2207   2.126   1.970   4.343  0.1453 -0.3317 -0.3456
 1828CO2     O2 2208   2.238   1.982   4.143  0.2877  1.0664 -0.1854
 1829CO2      C 2209   2.185   0.200   6.179 -0.0170  0.1133 -0.2336
 1829CO2     O1 2210   2.207   0.252   6.279 -0.4920  0.1632 -0.1528
 1829CO2     O2 2211   2.157   0.145   6.082  0.0437 -0.3614  0.0143
 1830CO2      C 2212   2.197   0.558   2.458  0.1060 -0.3114  0.3413
 1830CO2     O1 2213   2.221   0.670   2.450 -0.2768 -0.2924 -0.6710
 1830CO2     O2 2214   2.174   0.446   2.470  0.1437 -0.3462  0.0952
 1831CO2      C 2215   1.340   3.414   6.526  0.8037 -0.3290  0.3066
 1831CO2     O1 2216   1.371   3.489   6.444  1.0648 -0.0964  0.6189
 1831CO2     O2 2217   1.306   3.338   6.605  0.8428 -0.1364  0.5101
 1832CO2      C 2218   1.700   1.361   7.659  0.0493  0.3839 -0.5309
 1832CO2     O1 2219   1.625   1.443   7.690 -0.0808  0.1171 -0.1405
 1832CO2     O2 2220   1.772   1.276   7.630 -0.2373 -0.1306  0.2277
 1833CO2      C 2221   0.709   0.944   5.397 -0.0538 -0.3016 -0.6567
 1833CO2     O1 2222   0.608   0.958   5.450  0.0615  0.4280 -0.6164
 1833CO2     O2 2223   0.808   0.934   5.339  0.0542 -0.3503 -0.4643
 1834CO2      C 2224   4.241   2.650   7.414  0.8198 -0.3359  0.4605
 1834CO2     O1 2225   4.269   2.761   7.406  0.4746 -0.2475  0.4338
 1834CO2     O2 2226   4.210   2.540   7.425 -0.6663  0.0062 -0.0671
 1835CO2      C 2227   2.471   1.396   2.195  0.5560 -0.4807 -0.4467
 1835CO2     O1 2228   2.383   1.387   2.122  0.0569 -0.3005  0.1356
 1835CO2     O2 2229   2.557   1.406   2.270  0.0866  0.2289  0.0019
 1836CO2      C 2230   1.067   3.651   4.377 -0.2311  0.1731 -0.4417
 1836CO2     O1 2231   1.054   3.765   4.379  0.1147  0.2097 -0.2279
 1836CO2     O2 2232   1.080   3.537   4.381 -0.0292  0.2002 -0.2745
 1837CO2      C 2233   0.850   0.487   1.517 -0.3343  0.6132 -0.0066
 1837CO2     O1 2234   0.820   0.447   1.413  0.0405 -0.4691  0.2905
 1837CO2     O2 2235   0.881   0.520   1.622  0.1175 -0.1779  0.1182
 1838CO2      C 2236   4.155   1.455   5.199 -0.0154  0.0167 -0.2603
 1838CO2     O1 2237   4.223   1.419   5.115  0.2410 -0.0238 -0.0363
 1838CO2     O2 2238   4.086   1.495   5.282  0.5646  0.2301  0.1191
 1839CO2      C 2239   0.259   0.253   6.762  0.1291 -0.4042  0.3754
 1839CO2     O1 2240   0.249   0.352   6.820 -0.6073  0.0681 -0.5326
 1839CO2     O2 2241   0.279   0.160   6.698  0.4412 -0.1836  0.1557
 1840CO2      C 2242   1.918   1.699   0.651  0.2397  0.0083 -0.4187
 1840CO2     O1 2243   1.863   1.599   0.661  0.1336  0.0822 -0.2525
 1840CO2     O2 2244   1.975   1.799   0.644 -0.2013  0.2647 -0.3582
 1841CO2      C 2245   2.780   1.683   0.999  0.5557 -0.3855  0.3319
 1841CO2     O1 2246   2.726   1.590   0.959  0.3407  0.0051 -0.3002
 1841CO2     O2 2247   2.832   1.777   1.041  0.1945  0.0195 -0.1129
 1842CO2      C 2248   0.407   2.881   5.056  0.2293  0.7975  0.2589
 1842CO2     O1 2249   0.404   2.914   4.946  0.1796  0.6299  0.2092
 1842CO2     O2 2250   0.413   2.858   5.168  0.1117  0.0402  0.1146
 1843CO2      C 2251   3.566   1.482   5.997  0.0791  0.0164 -0.5461
 1843CO2     O1 2252   3.550   1.380   6.046  0.6218 -0.1823 -0.7677
 1843CO2     O2 2253   3.582   1.585   5.949  0.0200  0.0183 -0.5625
 1844CO2      C 2254   0.442   1.873   0.667 -0.6165 -0.4718 -0.0532
 1844CO2     O1 2255   0.350   1.942   0.674 -0.0081  0.3360  0.1558
 1844CO2     O2 2256   0.537   1.809   0.658 -0.0516  0.4240 -0.5846
 1845CO2      C 2257   3.631   0.337   4.238  0.8059 -0.3274  0.0735
 1845CO2     O1 2258   3.691   0.363   4.144 -0.6386  0.9054 -0.5473
 1845CO2     O2 2259   3.564   0.308   4.327 -0.3080  0.3613 -0.5190
 1846CO2      C 2260   2.943   0.387   5.483 -0.6627  0.1396 -0.1083
 1846CO2     O1 2261   2.980   0.484   5.531 -0.1100 -0.3047  0.3801
 1846CO2     O2 2262   2.906   0.288   5.437 -0.0764 -0.1392  0.0101
 1847CO2      C 2263   3.361   4.202   6.555 -0.2448 -0.3399 -0.0134
 1847CO2     O1 2264   3.292   4.293   6.548  0.1747 -0.0026  0.1902
 1847CO2     O2 2265   3.427   4.108   6.554 -0.2700 -0.3538 -0.5581
 1848CO2      C 2266   3.229   0.235   6.723 -0.3414 -0.2045 -0.0244
 1848CO2     O1 2267   3.239   0.150   6.800  0.0940 -0.1418 -0.0121
 1848CO2     O2 2268   3.216   0.320   6.647 -0.0203 -0.3168 -0.2059
 1849CO2      C 2269   4.032   0.232   2.742  0.2240 -0.1899  0.4318
 1849CO2     O1 2270   3.937   0.218   2.805 -0.1317 -0.2345 -0.1124
 1849CO2     O2 2271   4.126   0.233   2.676 -0.3899 -0.0876 -0.4496
 1850CO2      C 2272   3.771   2.675   3.257 -0.0107 -0.5376  0.7611
 1850CO2     O1 2273   3.674   2.627   3.294 -0.0413 -0.2867  1.0188
 1850CO2     O2 2274   3.865   2.731   3.220 -0.5189 -0.1559  0.0416
 1851CO2      C 2275   3.462   2.153   3.364  0.3939 -0.2152 -0.3711
 1851CO2     O1 2276   3.545   2.209   3.307  0.1369  0.5906  0.0442
 1851CO2     O2 2277   3.387   2.095   3.428  0.0295  0.2119 -0.4080
 1852CO2      C 2278   1.102   4.105   1.015 -0.0988 -0.3498  0.1859
 1852CO2     O1 2279   1.104   4.192   1.090 -0.1661 -0.4226  0.2711
 1852CO2     O2 2280   1.091   4.022   0.936 -0.2146  0.2690 -0.4531
 1853CO2      C 2281   1.124   0.869   0.759  0.1662 -0.2916 -0.2036
 1853CO2     O1 2282   1.100   0.867   0.647 -0.2147 -0.0329 -0.1297
 1853CO2     O2 2283   1.143   0.874   0.872 -0.0286  0.5323 -0.2004
 1854CO2      C 2284   3.227   2.441   7.173 -0.1802 -0.1614 -0.3039
 1854CO2     O1 2285   3.202   2.552   7.160 -0.0262 -0.0082  0.6533
 1854CO2     O2 2286   3.257   2.331   7.186  0.0075 -0.0920 -0.1346
 1855CO2      C 2287   0.874   2.684   4.806 -0.0433  0.2147 -0.1234
 1855CO2     O1 2288   0.880   2.630   4.705 -0.5170 -0.1352  0.0343
 1855CO2     O2 2289   0.863   2.741   4.905 -0.1300  0.4385 -0.2579
 1856CO2      C 2290   0.421   1.643   4.612  0.1074  0.2167  0.3043
 1856CO2     O1 2291   0.535   1.645   4.607  0.0786  0.1577 -0.4777
 1856CO2     O2 2292   0.306   1.633   4.614  0.1094 -0.0309 -0.3688
 1857CO2      C 2293   2.094   2.465   6.111 -0.0948  0.3474  0.5010
 1857CO2     O1 2294   2.206   2.483   6.094 -0.1058 -0.1779 -0.1790
 1857CO2     O2 2295   1.983   2.439   6.126 -0.0434 -0.0940  0.1610
 1858CO2      C 2296   3.867   1.512   6.270 -0.4758  0.2942  0.2273
 1858CO2     O1 2297   3.963   1.473   6.320 -0.1639  0.5093 -0.2040
 1858CO2     O2 2298   3.771   1.550   6.221 -0.2777  0.0138 -0.3859
 1859CO2      C 2299   3.650   0.536   4.568 -0.2895 -0.1173 -0.5163
 1859CO2     O1 2300   3.713   0.622   4.525  0.1927 -0.3192 -0.2270
 1859CO2     O2 2301   3.583   0.455   4.615  0.1985 -0.4791 -0.4374
 1860CO2      C 2302   2.368   3.202   4.668  0.6623 -0.0213 -0.2465
 1860CO2     O1 2303   2.402   3.302   4.624 -0.0516  0.4034  0.1339
 1860CO2     O2 2304   2.336   3.100   4.711  0.2771  0.2094  0.0259
 1861CO2      C 2305   3.607   3.340   1.468  0.3103  0.3091  0.5896
 1861CO2     O1 2306   3.515   3.289   1.516  0.1554  0.1171  0.0920
 1861CO2     O2 2307   3.698   3.389   1.419  0.2823  0.0859  0.3150
 1862CO2      C 2308   0.840   0.476   4.036 -0.6285 -0.1929 -0.5962
 1862CO2     O1 2309   0.792   0.580   4.025  0.0906  0.2571  0.3391
 1862CO2     O2 2310   0.897   0.377   4.045  0.3362  0.3682 -0.4582
 1863CO2      C 2311   0.289   0.641   5.272 -0.0984  0.1934 -0.1513
 1863CO2     O1 2312   0.258   0.702   5.364  0.1780 -0.6225  0.5043
 1863CO2     O2 2313   0.318   0.574   5.183  0.6120  0.1900  0.0777
 1864CO2      C 2314   0.895   2.538   3.280  0.3737 -0.0243  0.0543
 1864CO2     O1 2315   0.824   2.528   3.370  0.2348  0.0951 -0.0407
 1864CO2     O2 2316   0.967   2.548   3.191  0.1967 -0.3876 -0.1312
 1865CO2      C 2317   2.888   3.793   7.397  0.1063 -0.4332 -0.6805
 1865CO2     O1 2318   2.789   3.756   7.444 -0.2587  0.6941 -0.5502
 1865CO2     O2 2319   2.990   3.824   7.357  0.4800 -0.1482  0.4477
 1866CO2      C 2320   3.579   0.845   4.161  0.2640  0.3095 -0.2969
 1866CO2     O1 2321   3.603   0.751   4.222  0.0508  0.0098 -0.6672
 1866CO2     O2 2322   3.551   0.940   4.103  0.0533  0.2659 -0.2675
 1867CO2      C 2323   3.083   1.769   6.207  0.4227 -0.1264  0.3059
 1867CO2     O1 2324   3.064   1.667   6.158  0.2897  0.0486 -0.0136
 1867CO2     O2 2325   3.110   1.869   6.257  0.2034  0.0232  0.1256
 1868CO2      C 2326   1.485   2.312   3.598 -0.1830 -0.3104  0.2335
 1868CO2     O1 2327   1.572   2.368   3.547 -0.5768 -0.2936 -0.4249
 1868CO2     O2 2328   1.399   2.258   3.651 -0.4305 -0.0667  0.0858
 1869CO2      C 2329   0.166   0.312   5.626  0.0970  0.8142 -0.1584
 1869CO2     O1 2330   0.245   0.267   5.696 -0.6259 -0.0305  0.1301
 1869CO2     O2 2331   0.087   0.357   5.556 -0.2905 -0.0535 -0.2953
 1870CO2      C 2332   3.960   3.221   4.861  0.5508 -0.9650 -0.0216
 1870CO2     O1 2333   4.047   3.268   4.803  0.1282  0.2886  0.3398
 1870CO2     O2 2334   3.872   3.174   4.918 -0.5122  0.5934 -0.3072
 1871CO2      C 2335   0.494   0.420   1.561 -0.4010  0.2042  0.8662
 1871CO2     O1 2336   0.555   0.332   1.601  0.1134 -0.0336 -0.3862
 1871CO2     O2 2337   0.429   0.501   1.511 -0.4533  0.0563  0.6947
 1872CO2      C 2338   0.173   0.328   6.103  0.2330  0.1063 -0.3340
 1872CO2     O1 2339   0.119   0.264   6.024  0.5441 -0.1486 -0.3396
 1872CO2     O2 2340   0.222   0.391   6.186 -0.0538 -0.2166  0.0853
 1873CO2      C 2341   1.350   2.988   7.655 -0.1737  0.0350 -0.6323
 1873CO2     O1 2342   1.402   3.084   7.618  0.0099  0.4274  0.6023
 1873CO2     O2 2343   1.292   2.900   7.700  0.0676  0.1793 -0.0264
 1874CO2      C 2344   2.069   2.010   1.912 -0.4317  0.1092  0.4925
 1874CO2     O1 2345   1.981   1.976   1.977 -0.6406  0.1039  0.2108
 1874CO2     O2 2346   2.155   2.050   1.846 -0.8452 -0.1078 -0.1863
 1875CO2      C 2347   1.845   1.315   6.328  0.1372  0.7398 -0.0576
 1875CO2     O1 2348   1.779   1.407   6.349 -0.6884  0.0860  0.2920
 1875CO2     O2 2349   1.916   1.228   6.304 -0.3801  0.3823 -0.3020
 1876CO2      C 2350   0.405   2.290   2.160  0.2214 -0.3217  0.2213
 1876CO2     O1 2351   0.520   2.283   2.162  0.2604  0.0372 -0.5467
 1876CO2     O2 2352   0.291   2.300   2.167  0.2476 -0.1683  0.4734
 1877CO2      C 2353   0.100   2.576   1.632 -0.1447 -0.2485 -0.0023
 1877CO2     O1 2354   0.198   2.536   1.588  0.0799  0.1142  0.1665
 1877CO2     O2 2355   0.005   2.615   1.685 -0.0700  0.0113 -0.0635
 1878CO2      C 2356   0.389   1.195   1.969  0.5864  0.1972 -0.0546
 1878CO2     O1 2357   0.474   1.119   1.962  0.3800 -0.0828  0.4404
 1878CO2     O2 2358   0.303   1.271   1.975  0.1511 -0.2673 -0.3050
 1879CO2      C 2359   0.911   1.214   6.120  0.1613  0.0099  0.5443
 1879CO2     O1 2360   1.024   1.230   6.117  0.1853 -0.2914 -0.8714
 1879CO2     O2 2361   0.798   1.189   6.123 -0.0316  0.8733  0.5932
 1880CO2      C 2362   2.828   1.522   0.672 -0.3579 -0.0349 -0.4590
 1880CO2     O1 2363   2.777   1.419   0.678 -0.4413  0.0465  0.3813
 1880CO2     O2 2364   2.882   1.623   0.668 -0.1349 -0.0973  0.6136
 1881CO2      C 2365   1.587   2.403   0.683 -0.3078  0.3105 -0.7200
 1881CO2     O1 2366   1.483   2.355   0.673 -0.3341  0.1479  0.2809
 1881CO2     O2 2367   1.693   2.447   0.688 -0.0732 -0.3277  0.1346
 1882CO2      C 2368   0.961   1.456   6.409  0.2481  0.8922 -0.1891
 1882CO2     O1 2369   1.027   1.462   6.503  0.0547  0.5481 -0.0269
 1882CO2     O2 2370   0.898   1.450   6.313  0.0417 -0.2128 -0.0020
 1883CO2      C 2371   1.448   3.897   7.051  0.2569  0.2273 -0.1587
 1883CO2     O1 2372   1.530   3.857   6.982  0.0461 -0.2023 -0.1631
 1883CO2     O2 2373   1.367   3.941   7.120  0.6123  0.3600  0.1772
 1884CO2      C 2374   2.780   4.090   4.451 -0.0648 -0.6079 -0.1716
 1884CO2     O1 2375   2.893   4.075   4.469  0.0598  0.3565 -0.0916
 1884CO2     O2 2376   2.667   4.102   4.440  0.0672  0.3955 -0.5571
 1885CO2      C 2377   1.376   3.158   4.292 -0.3926  0.0314  0.1588
 1885CO2     O1 2378   1.408   3.191   4.187 -0.5806 -0.1321  0.0498
 1885CO2     O2 2379   1.348   3.126   4.399  0.5960 -0.2587  0.3400
 1886CO2      C 2380   2.858   3.714   3.804 -0.2367  0.6514 -0.0276
 1886CO2     O1 2381   2.894   3.772   3.897 -0.2708  0.4502  0.1107
 1886CO2     O2 2382   2.810   3.660   3.714  0.2627  0.1500  0.0023
 1887CO2      C 2383   2.931   2.665   5.060 -0.1445 -0.2275  0.2201
 1887CO2     O1 2384   2.919   2.659   5.174 -0.2009 -0.1104  0.2207
 1887CO2     O2 2385   2.939   2.666   4.945  0.4248  0.4154  0.2620
 1888CO2      C 2386   3.115   4.026   3.613 -0.4612  0.1166 -0.8435
 1888CO2     O1 2387   3.115   4.138   3.639  0.0557 -0.1918  0.5096
 1888CO2     O2 2388   3.116   3.914   3.590 -0.5202  0.0416 -0.4799
 1889CO2      C 2389   4.310   0.515   1.241 -0.0891  0.1393  0.4043
 1889CO2     O1 2390   4.395   0.551   1.174 -0.3997  0.0220 -0.0583
 1889CO2     O2 2391   4.223   0.478   1.306 -0.1785 -0.3210  0.0251
 1890CO2      C 2392   1.124   2.247   7.677 -0.2517 -0.4888  0.4316
 1890CO2     O1 2393   1.056   2.333   7.711 -0.3125 -0.0940 -0.6782
 1890CO2     O2 2394   1.193   2.160   7.648 -0.0164 -0.3540  0.5756
 1891CO2      C 2395   0.877   1.717   4.561  0.7275 -0.2246  0.4606
 1891CO2     O1 2396   0.818   1.750   4.654 -0.2427 -0.4352 -0.0650
 1891CO2     O2 2397   0.936   1.691   4.466  0.3151 -0.1249  0.1745
 1892CO2      C 2398   2.484   1.766   2.356  0.4774 -0.1954  0.3132
 1892CO2     O1 2399   2.478   1.701   2.451  0.4176  0.1295  0.5331
 1892CO2     O2 2400   2.484   1.828   2.260 -0.4858 -0.5677  0.0540
 1893CO2      C 2401   0.696   1.009   4.522 -0.0845 -0.1772  0.2244
 1893CO2     O1 2402   0.712   1.119   4.552 -0.3840  0.2203 -1.0217
 1893CO2     O2 2403   0.681   0.901   4.488 -0.2099 -0.0325 -0.1849
 1894CO2      C 2404   2.513   4.091   5.422  0.3238 -0.2466 -0.0002
 1894CO2     O1 2405   2.470   3.985   5.410  0.0461 -0.1684  0.2739
 1894CO2     O2 2406   2.549   4.198   5.440  0.7002 -0.4396  0.4188
 1895CO2      C 2407   2.694   1.938   7.342  0.4390  0.3659  0.7718
 1895CO2     O1 2408   2.649   1.874   7.427 -0.1145  0.4684  0.5579
 1895CO2     O2 2409   2.734   2.004   7.257  0.0896  0.2667  0.5313
 1896CO2      C 2410   3.165   3.944   7.687 -0.0719 -0.2499  0.3737
 1896CO2     O1 2411   3.097   4.034   7.667 -0.1830 -0.4318 -0.0670
 1896CO2     O2 2412   3.236   3.856   7.706  0.3261  0.1056  0.5616
 1897CO2      C 2413   3.074   0.917   1.632  0.0996  0.3822  0.0426
 1897CO2     O1 2414   3.014   0.986   1.701 -0.1094  0.4167 -0.1728
 1897CO2     O2 2415   3.137   0.845   1.568  0.0817  0.2345  0.1916
 1898CO2      C 2416   1.940   2.110   4.035 -0.3548  0.3450 -0.5752
 1898CO2     O1 2417   1.916   2.138   4.144 -0.2196  0.0161 -0.4619
 1898CO2     O2 2418   1.961   2.079   3.927 -0.4767  0.6291 -0.6809
 1899CO2      C 2419   2.885   2.087   1.929  0.4188 -0.2281  0.0711
 1899CO2     O1 2420   2.863   2.004   1.854  0.3965  0.0158 -0.1909
 1899CO2     O2 2421   2.894   2.174   2.004 -0.2112  0.0418 -0.1617
 1900CO2      C 2422   0.450   4.052   6.975 -0.1930 -0.3852  0.2390
 1900CO2     O1 2423   0.444   4.027   6.863 -0.0532 -0.1724  0.1828
 1900CO2     O2 2424   0.449   4.085   7.085 -1.2624 -0.1380  0.1633
 1901CO2      C 2425   0.199   0.863   1.311 -0.1146  0.0897  0.0021
 1901CO2     O1 2426   0.123   0.781   1.338  0.1520 -0.0412  0.3518
 1901CO2     O2 2427   0.275   0.946   1.290  0.1675 -0.2314 -0.2593
 1902CO2      C 2428   4.012   2.116   3.106  0.3519 -0.4171  0.2159
 1902CO2     O1 2429   3.938   2.028   3.118 -0.2188  0.0580  0.2302
 1902CO2     O2 2430   4.088   2.202   3.100 -0.3918  0.2666  0.4176
 1903CO2      C 2431   3.085   1.978   4.483 -0.3649  0.2653 -0.3866
 1903CO2     O1 2432   3.131   2.073   4.437 -0.1017  0.1164 -0.4309
 1903CO2     O2 2433   3.048   1.880   4.530  0.3139 -0.1127 -0.6354
 1904CO2      C 2434   1.645   4.253   1.633  0.3325 -1.2016  0.5945
 1904CO2     O1 2435   1.745   4.264   1.688  0.3664  0.2680  0.2747
 1904CO2     O2 2436   1.547   4.238   1.574  0.6214 -0.0474 -0.2038
 1905CO2      C 2437   0.015   0.816   5.201 -0.1183  0.5071  0.2602
 1905CO2     O1 2438  -0.067   0.750   5.247  0.1714  0.3898  0.6098
 1905CO2     O2 2439   0.102   0.874   5.153 -0.4886  0.4295 -0.5035
 1906CO2      C 2440   0.472   0.976   0.677  0.0893  0.0396  0.0677
 1906CO2     O1 2441   0.375   0.924   0.645 -0.0854  0.1239  0.4515
 1906CO2     O2 2442   0.567   1.029   0.713 -0.0715 -0.0444  0.6260
 1907CO2      C 2443   2.382   2.286   1.564 -0.0851 -0.3036 -0.0289
 1907CO2     O1 2444   2.362   2.251   1.457 -0.0667  0.0529 -0.1462
 1907CO2     O2 2445   2.414   2.320   1.669 -0.0077 -0.4553 -0.0017
 1908CO2      C 2446   4.284   3.436   2.574 -0.7971 -0.0412  0.2464
 1908CO2     O1 2447   4.333   3.339   2.538 -0.0769  0.2181  0.5156
 1908CO2     O2 2448   4.236   3.534   2.612  0.4504  0.5831  0.2495
 1909CO2      C 2449   1.465   4.056   1.041 -0.5825 -0.4627 -0.1748
 1909CO2     O1 2450   1.385   4.125   0.996 -0.3214 -0.2837 -0.3721
 1909CO2     O2 2451   1.543   3.986   1.088 -0.0659  0.2677  0.0830
 1910CO2      C 2452   4.246   0.437   2.501 -0.1552  0.2194 -0.1981
 1910CO2     O1 2453   4.157   0.495   2.545 -0.0301  0.1822  0.1075
 1910CO2     O2 2454   4.334   0.381   2.454 -0.2620  0.1135 -0.2742
 1911CO2      C 2455   4.009   0.885   1.823  0.0724  0.0680  0.2526
 1911CO2     O1 2456   3.994   0.774   1.846 -0.4212  0.1448  0.3126
 1911CO2     O2 2457   4.017   0.997   1.798  0.6209  0.0145  0.1817
 1912CO2      C 2458   0.074   3.826   4.342  0.2159  0.3955 -0.2911
 1912CO2     O1 2459   0.153   3.757   4.297  0.0677  0.0767 -0.0640
 1912CO2     O2 2460  -0.009   3.892   4.388  0.5126  0.5751 -0.0078
 1913CO2      C 2461   4.200   3.209   1.901  0.2657  1.0650 -0.0476
 1913CO2     O1 2462   4.203   3.205   1.786  0.1449  0.3406 -0.0287
 1913CO2     O2 2463   4.189   3.215   2.015 -0.1149 -0.3246  0.0082
 1914CO2      C 2464   0.277   0.159   2.628  0.0660  0.2685  0.3136
 1914CO2     O1 2465   0.308   0.084   2.546  0.0949  0.3658  0.2350
 1914CO2     O2 2466   0.246   0.232   2.710 -0.4450  0.2668  0.1242
 1915CO2      C 2467   4.303   0.508   6.988 -0.3705 -0.1004  0.4140
 1915CO2     O1 2468   4.204   0.493   6.932 -0.1943 -0.2540  0.1367
 1915CO2     O2 2469   4.407   0.516   7.038 -0.2775 -0.2820  0.2512
 1916CO2      C 2470   1.166   1.951   1.252 -0.1602  0.0300 -0.4145
 1916CO2     O1 2471   1.057   1.953   1.288 -0.1124  0.4605 -0.2869
 1916CO2     O2 2472   1.275   1.954   1.216 -0.0531  0.0347 -0.0846
 1917CO2      C 2473   3.385   2.766   0.992 -0.1307 -0.3055 -0.0675
 1917CO2     O1 2474   3.379   2.654   0.967 -0.0278 -0.2077 -0.5479
 1917CO2     O2 2475   3.400   2.877   1.020 -0.5507 -0.2753  0.0381
 1918CO2      C 2476   2.248   2.626   5.398 -0.0447  0.2434  0.1086
 1918CO2     O1 2477   2.290   2.682   5.489  0.0865  0.0406  0.1727
 1918CO2     O2 2478   2.204   2.572   5.306  0.2646  0.2515 -0.0455
 1919CO2      C 2479   1.291   3.143   6.256  0.8775 -0.6868 -0.4590
 1919CO2     O1 2480   1.226   3.187   6.173 -0.0240 -0.1271  0.5087
 1919CO2     O2 2481   1.349   3.101   6.346  0.4973  0.2213  0.2314
 1920CO2      C 2482   3.695   2.009   3.994  0.4575  0.3571 -0.0308
 1920CO2     O1 2483   3.660   1.938   3.910  0.1735  0.4412  0.0124
 1920CO2     O2 2484   3.732   2.077   4.079 -0.0163  0.3307  0.2015
 1921CO2      C 2485   0.333   2.891   7.089  0.2196  0.2891  0.3055
 1921CO2     O1 2486   0.392   2.972   7.033  0.3065 -0.0917 -0.1526
 1921CO2     O2 2487   0.276   2.814   7.152  0.4418 -0.0313  0.1130
 1922CO2      C 2488   3.215   1.965   4.085 -0.4174 -0.0149 -0.6635
 1922CO2     O1 2489   3.319   1.989   4.044 -0.3272  0.2597 -0.2796
 1922CO2     O2 2490   3.109   1.944   4.126 -0.1633  0.0453  0.0488
 1923CO2      C 2491   1.921   0.661   5.186  0.0736  0.0208  0.3136
 1923CO2     O1 2492   1.991   0.743   5.146 -0.8766  0.8696  0.3465
 1923CO2     O2 2493   1.850   0.577   5.219 -0.1391  0.1173  0.1042
 1924CO2      C 2494   1.470   2.632   7.466  0.5363  0.0427  1.0122
 1924CO2     O1 2495   1.562   2.688   7.430  0.0908  0.6203  0.7630
 1924CO2     O2 2496   1.371   2.578   7.491  0.0772  0.3576 -0.0892
 1925CO2      C 2497   3.864   1.173   3.692  0.3180  0.0687 -0.5586
 1925CO2     O1 2498   3.853   1.268   3.755  0.4193 -0.3347  0.0745
 1925CO2     O2 2499   3.874   1.080   3.625 -0.0495 -0.2909 -0.1242
 1926CO2      C 2500   2.716   2.003   6.728 -0.0261  0.2350 -0.1891
 1926CO2     O1 2501   2.647   2.011   6.820 -0.1505 -0.1692 -0.2476
 1926CO2     O2 2502   2.785   1.997   6.637 -0.1485  0.2459 -0.2842
 1927CO2      C 2503   3.189   0.830   4.474 -0.2860  0.2944 -0.1958
 1927CO2     O1 2504   3.164   0.922   4.538 -0.3538 -0.2902  0.6454
 1927CO2     O2 2505   3.215   0.741   4.406  0.7085  0.1875  0.3012
 1928CO2      C 2506   1.004   1.428   3.391 -0.1764  0.1242  0.5331
 1928CO2     O1 2507   1.083   1.349   3.419  0.1217  0.0998 -0.3542
 1928CO2     O2 2508   0.925   1.506   3.364 -0.0836  0.0026 -0.1077
 1929CO2      C 2509   3.200   1.549   4.319  0.2766 -0.1107 -0.1242
 1929CO2     O1 2510   3.146   1.448   4.315  0.0568 -0.0152  0.3182
 1929CO2     O2 2511   3.250   1.652   4.326  0.2974 -0.1023 -0.4022
 1930CO2      C 2512   1.274   2.671   7.143 -0.5036 -0.3325  0.4515
 1930CO2     O1 2513   1.349   2.749   7.183 -0.4711  0.0455 -0.3255
 1930CO2     O2 2514   1.200   2.594   7.101 -0.1659 -0.2863 -0.2337
 1931CO2      C 2515   1.695   1.250   5.136 -0.2891 -0.0512 -0.3727
 1931CO2     O1 2516   1.592   1.292   5.165 -0.1674  0.2981 -0.4359
 1931CO2     O2 2517   1.797   1.209   5.104  0.0429 -0.1755  0.7948
 1932CO2      C 2518   1.922   0.988   7.675 -0.1510  0.4260  0.3656
 1932CO2     O1 2519   1.841   0.907   7.665  0.0491  0.2766 -0.0714
 1932CO2     O2 2520   2.007   1.066   7.676  0.0453  0.2110  0.3670
 1933CO2      C 2521   2.847   1.676   1.299  0.2245 -0.3234  0.1446
 1933CO2     O1 2522   2.802   1.576   1.264 -1.0003  0.1795  0.2267
 1933CO2     O2 2523   2.887   1.780   1.329  0.5277 -0.2327 -0.5480
 1934CO2      C 2524   2.776   0.361   4.869  0.3927 -0.0578  0.1719
 1934CO2     O1 2525   2.743   0.277   4.797  0.4515  0.0093  0.0668
 1934CO2     O2 2526   2.806   0.444   4.942  0.0585 -0.2038  0.4823
 1935CO2      C 2527   3.857   0.195   6.566  0.3924 -0.0510 -0.5580
 1935CO2     O1 2528   3.749   0.222   6.538  0.3091  0.6733  0.4144
 1935CO2     O2 2529   3.966   0.172   6.595  0.1463 -0.4043  0.1125
 1936CO2      C 2530   1.966   2.741   0.675  0.0574  0.3676 -0.3436
 1936CO2     O1 2531   2.079   2.721   0.674  0.0013  0.0365 -0.1887
 1936CO2     O2 2532   1.852   2.755   0.672 -0.0536 -0.2811  0.4099
 1937CO2      C 2533   1.090   3.479   7.381 -0.2552 -0.3763  0.0260
 1937CO2     O1 2534   1.034   3.575   7.410  0.6374  0.1423  0.0672
 1937CO2     O2 2535   1.148   3.383   7.354 -0.1201 -0.4316  0.5130
 1938CO2      C 2536   3.927   1.525   3.878 -0.2477  0.2560 -0.3275
 1938CO2     O1 2537   3.847   1.572   3.945  0.2829 -0.0380  0.5193
 1938CO2     O2 2538   4.005   1.477   3.808 -0.1896 -0.3403  0.1312
 1939CO2      C 2539   3.703   3.511   7.712  0.6943 -0.4052  0.0106
 1939CO2     O1 2540   3.783   3.593   7.707 -0.3558  0.6024 -0.7438
 1939CO2     O2 2541   3.621   3.430   7.716  0.3278 -0.0379  0.0823
 1940CO2      C 2542   2.127   1.091   2.346  0.4023  0.4500  0.7525
 1940CO2     O1 2543   2.173   1.119   2.245  0.2663 -0.1151  0.5315
 1940CO2     O2 2544   2.080   1.052   2.443 -0.2797 -0.2632  0.1464
 1941CO2      C 2545   0.679   1.798   7.391  0.2615 -0.2151 -0.5780
 1941CO2     O1 2546   0.667   1.913   7.388 -0.2745 -0.2452  0.0865
 1941CO2     O2 2547   0.687   1.684   7.396 -0.1042 -0.2254 -0.1548
 1942CO2      C 2548   1.295   3.625   7.143  0.3084  0.1156 -0.1437
 1942CO2     O1 2549   1.407   3.621   7.168  0.3717  0.3062 -0.3915
 1942CO2     O2 2550   1.185   3.629   7.110  0.1869  0.4552  0.2836
 1943CO2      C 2551   0.072   1.464   7.683  0.3725  0.2354 -0.0742
 1943CO2     O1 2552   0.147   1.378   7.693 -0.2832 -0.3387  0.0010
 1943CO2     O2 2553  -0.007   1.547   7.674 -0.1002 -0.2540 -0.5090
 1944CO2      C 2554   0.767   2.788   2.793 -0.7774  0.6786 -0.0043
 1944CO2     O1 2555   0.712   2.799   2.893 -0.4976  0.4915  0.1705
 1944CO2     O2 2556   0.826   2.769   2.696 -0.1557 -0.0629  0.5119
 1945CO2      C 2557   0.720   3.608   5.440 -0.3229  0.6124 -0.0877
 1945CO2     O1 2558   0.711   3.588   5.553  0.0406  0.6079 -0.0586
 1945CO2     O2 2559   0.729   3.626   5.327 -0.0516  0.2148 -0.1288
 1946CO2      C 2560   2.234   1.675   0.680  0.2470 -0.1932 -0.1618
 1946CO2     O1 2561   2.197   1.568   0.658 -0.0634 -0.1187 -0.0025
 1946CO2     O2 2562   2.266   1.782   0.708  0.2072 -0.1155 -0.4113
 1947CO2      C 2563   3.655   1.377   3.385 -0.9968 -0.1910  0.7592
 1947CO2     O1 2564   3.572   1.369   3.306 -0.1169 -0.2275 -0.1787
 1947CO2     O2 2565   3.733   1.383   3.470 -0.1526 -0.1512  0.0028
 1948CO2      C 2566   2.650   2.341   1.887 -0.1464 -0.2613 -0.1403
 1948CO2     O1 2567   2.591   2.358   1.984  0.2573 -0.3245  0.1176
 1948CO2     O2 2568   2.712   2.326   1.792  0.0045 -0.1003 -0.0685
 1949CO2      C 2569   0.608   0.821   1.491  0.3894  0.4131  0.6571
 1949CO2     O1 2570   0.558   0.918   1.455 -0.1362 -0.0045  0.2588
 1949CO2     O2 2571   0.658   0.723   1.525 -0.1033 -0.1067 -0.0997
 1950CO2      C 2572   0.250   0.222   2.019  0.4575  0.0603 -0.3829
 1950CO2     O1 2573   0.200   0.133   1.966 -0.1728  0.3500 -0.2805
 1950CO2     O2 2574   0.295   0.316   2.067 -0.1856  0.1446  0.0618
 1951CO2      C 2575   3.631   2.260   3.776  0.6768 -0.2366  0.3507
 1951CO2     O1 2576   3.738   2.266   3.733  0.4664 -0.3257 -0.1971
 1951CO2     O2 2577   3.525   2.255   3.820  0.5566 -0.7927  0.0082
 1952CO2      C 2578   2.942   3.135   2.364 -0.3472 -0.1291  0.3424
 1952CO2     O1 2579   2.886   3.199   2.441  0.2828  0.5506  0.2555
 1952CO2     O2 2580   3.001   3.075   2.285  0.4095  0.8322  0.1594
 1953CO2      C 2581   0.621   0.652   5.588  0.2399  0.1093  0.2104
 1953CO2     O1 2582   0.660   0.642   5.696 -0.1369 -0.4146  0.3023
 1953CO2     O2 2583   0.579   0.661   5.482  0.3871 -0.5467  0.0928
 1954CO2      C 2584   0.066   2.470   3.538 -0.1294 -0.5291 -0.0370
 1954CO2     O1 2585   0.101   2.368   3.498 -0.5178 -0.4965 -0.4757
 1954CO2     O2 2586   0.032   2.574   3.572 -0.0384 -0.4554 -0.1692
 1955CO2      C 2587   2.191   0.885   6.000  0.3421 -0.0625 -1.0349
 1955CO2     O1 2588   2.079   0.910   6.015  0.5575  0.0501  0.5511
 1955CO2     O2 2589   2.301   0.853   5.994  0.1527 -0.7811 -0.6719
 1956CO2      C 2590   4.183   2.866   1.987 -0.0104  0.4424 -0.0467
 1956CO2     O1 2591   4.266   2.809   2.042  0.3796  0.0888 -0.9788
 1956CO2     O2 2592   4.108   2.926   1.923 -0.3882  0.1042  0.0760
 1957CO2      C 2593   3.760   2.559   1.142 -0.1280  0.0994 -0.3649
 1957CO2     O1 2594   3.662   2.499   1.152  0.0027  0.0041  0.3908
 1957CO2     O2 2595   3.858   2.617   1.134  0.1606 -0.3632 -0.2130
 1958CO2      C 2596   3.671   3.807   5.799  0.4249 -0.1641  0.0812
 1958CO2     O1 2597   3.732   3.711   5.781  0.4428 -0.1387  0.0051
 1958CO2     O2 2598   3.614   3.906   5.811  0.0024 -0.3261 -0.5323
 1959CO2      C 2599   2.465   3.693   4.899 -0.3172 -0.0951  0.0101
 1959CO2     O1 2600   2.571   3.735   4.904 -0.2605 -0.2930  0.6388
 1959CO2     O2 2601   2.357   3.653   4.892 -0.3331  0.0572 -0.6254
 1960CO2      C 2602   3.764   0.470   1.813  0.1718 -0.2403 -0.4220
 1960CO2     O1 2603   3.855   0.423   1.864  0.0038  0.4232  0.5062
 1960CO2     O2 2604   3.673   0.519   1.763 -0.0263 -0.5435 -0.3575
 1961CO2      C 2605   3.476   2.724   4.294 -0.7317  0.1403 -0.8453
 1961CO2     O1 2606   3.494   2.837   4.295  0.5935 -0.0497 -0.1199
 1961CO2     O2 2607   3.465   2.610   4.305  0.2441  0.0743 -0.4844
 1962CO2      C 2608   0.619   3.419   5.856 -0.2060  0.3301  0.3518
 1962CO2     O1 2609   0.522   3.468   5.818  0.0213  0.2207 -0.3930
 1962CO2     O2 2610   0.714   3.373   5.900  0.1407  0.5093 -0.1966
 1963CO2      C 2611   0.049   0.159   1.637 -0.0965 -0.2695 -0.1272
 1963CO2     O1 2612  -0.032   0.095   1.686 -0.1440 -0.2111 -0.1298
 1963CO2     O2 2613   0.126   0.226   1.583 -0.0909 -0.4159 -0.3013
 1964CO2      C 2614   1.980   4.042   5.596 -0.0747  0.2545  0.1423
 1964CO2     O1 2615   2.014   3.960   5.669  0.5188  0.0532 -0.3444
 1964CO2     O2 2616   1.945   4.123   5.523  0.0738 -0.1405 -0.3762
 1965CO2      C 2617   3.191   1.560   5.901  0.1693  0.8661  0.8375
 1965CO2     O1 2618   3.298   1.600   5.905  0.2821  0.6988 -0.2576
 1965CO2     O2 2619   3.083   1.519   5.896  0.4529  0.2441 -0.4857
 1966CO2      C 2620   1.616   3.661   2.926 -0.6104  0.4565 -0.0107
 1966CO2     O1 2621   1.705   3.706   2.983 -0.3394 -0.1860  0.0824
 1966CO2     O2 2622   1.530   3.611   2.869 -0.2699 -0.2468  0.0813
 1967CO2      C 2623   4.106   0.251   6.296 -0.0884 -0.0897  0.5837
 1967CO2     O1 2624   4.018   0.180   6.318 -0.2018 -0.3155 -0.5300
 1967CO2     O2 2625   4.185   0.332   6.274 -0.0543 -0.0988  0.6727
 1968CO2      C 2626   3.197   0.930   1.192 -0.2122 -0.2941  0.2666
 1968CO2     O1 2627   3.137   0.841   1.232  0.4754 -0.7131  0.3795
 1968CO2     O2 2628   3.261   1.020   1.157 -0.1215 -0.3849  0.1990
 1969CO2      C 2629   2.380   3.375   2.429 -0.0719  1.0437 -0.4198
 1969CO2     O1 2630   2.455   3.340   2.350  0.1501 -0.3478  0.3828
 1969CO2     O2 2631   2.310   3.413   2.512  0.0629  0.4123 -0.0074
 1970CO2      C 2632   0.805   2.504   2.521  0.0994 -0.0819 -0.4297
 1970CO2     O1 2633   0.887   2.488   2.442 -0.2266 -0.2222 -0.7428
 1970CO2     O2 2634   0.716   2.521   2.592  0.2233  0.0756 -0.3107
 1971CO2      C 2635   1.438   1.098   6.242  0.6893 -0.1334 -0.3838
 1971CO2     O1 2636   1.536   1.152   6.268 -0.0013  0.4863  1.1036
 1971CO2     O2 2637   1.337   1.047   6.220  0.5091  0.1453 -0.2183
 1972CO2      C 2638   4.092   1.363   1.006  0.1963  0.1309 -0.0225
 1972CO2     O1 2639   4.002   1.346   0.936  0.1997  0.0539 -0.0087
 1972CO2     O2 2640   4.185   1.375   1.071  0.4090  0.6557 -0.4117
 1973CO2      C 2641   2.486   2.855   1.996 -0.0913  0.0431  0.5424
 1973CO2     O1 2642   2.550   2.762   2.019 -0.4038 -0.5324 -0.8423
 1973CO2     O2 2643   2.417   2.945   1.976 -0.3755 -0.3228 -0.1545
 1974CO2      C 2644   2.627   3.554   4.570 -0.2864 -0.1473  0.1818
 1974CO2     O1 2645   2.649   3.544   4.458 -0.2897  0.2768  0.1431
 1974CO2     O2 2646   2.607   3.562   4.683 -0.1798 -0.0218  0.1921
 1975CO2      C 2647   2.872   1.664   4.407  0.4565 -0.5302  0.1563
 1975CO2     O1 2648   2.826   1.666   4.513  0.0770  0.2624 -0.0113
 1975CO2     O2 2649   2.919   1.659   4.303 -0.2866  0.4487 -0.2446
 1976CO2      C 2650   3.884   0.812   0.646  0.0617 -0.1299  0.0891
 1976CO2     O1 2651   3.820   0.717   0.631  0.5306 -0.5183  0.4884
 1976CO2     O2 2652   3.952   0.903   0.659  0.2176 -0.2607  0.2022
 1977CO2      C 2653   4.165   3.292   3.266  0.2646  0.0763  0.0775
 1977CO2     O1 2654   4.110   3.250   3.175 -0.2416  0.5454  0.1614
 1977CO2     O2 2655   4.226   3.332   3.355  0.7345  0.9125 -0.6076
 1978CO2      C 2656   3.767   4.187   6.608  0.1407 -0.1245 -0.2107
 1978CO2     O1 2657   3.827   4.254   6.680 -0.2840 -0.2046  0.2233
 1978CO2     O2 2658   3.706   4.122   6.536  0.1287  0.4253 -0.7013
 1979CO2      C 2659   4.033   3.176   0.675 -0.9292  1.2505 -0.5159
 1979CO2     O1 2660   3.962   3.093   0.640 -0.0942  0.2982  0.0071
 1979CO2     O2 2661   4.105   3.258   0.710 -0.0451 -0.0114  0.7262
 1980CO2      C 2662   2.992   2.130   3.416  0.0330  0.1479 -0.1935
 1980CO2     O1 2663   3.097   2.116   3.370 -0.3519 -0.0941 -1.0076
 1980CO2     O2 2664   2.888   2.138   3.464 -0.1406  0.2502 -0.5921
 1981CO2      C 2665   4.241   3.900   2.779 -0.5203  0.1747 -0.1702
 1981CO2     O1 2666   4.268   3.994   2.838 -0.0341 -0.0774  0.0134
 1981CO2     O2 2667   4.215   3.805   2.719  0.3359 -0.1345 -0.0668
 1982CO2      C 2668   0.311   4.257   7.390 -0.0118  0.2850  0.4126
 1982CO2     O1 2669   0.282   4.145   7.391  0.0991  0.2518 -0.0277
 1982CO2     O2 2670   0.343   4.367   7.392  0.4964  0.1474 -0.0157
 1983CO2      C 2671   2.799   0.459   0.657  0.2558 -0.3205  0.0653
 1983CO2     O1 2672   2.893   0.525   0.649  0.1898 -0.2442 -0.0764
 1983CO2     O2 2673   2.709   0.389   0.666 -0.1862  0.1951 -0.3444
 1984CO2      C 2674   2.236   4.125   6.271  0.4392  0.1904 -0.4904
 1984CO2     O1 2675   2.245   4.234   6.306 -0.5936 -0.2017  1.1071
 1984CO2     O2 2676   2.220   4.016   6.237 -0.2607  0.2362 -0.3239
 1985CO2      C 2677   2.296   0.562   6.240 -0.2229  0.7741  0.2093
 1985CO2     O1 2678   2.327   0.555   6.350 -0.0381 -0.0696  0.1070
 1985CO2     O2 2679   2.271   0.564   6.128 -0.1657 -0.0093  0.1779
 1986CO2      C 2680   0.528   0.206   1.242 -0.1792 -0.4666 -0.6572
 1986CO2     O1 2681   0.633   0.234   1.280 -0.3699 -0.3452 -0.2189
 1986CO2     O2 2682   0.427   0.172   1.199 -0.6037  0.1710 -0.1729
 1987CO2      C 2683   0.610   4.240   5.592  0.0989  0.3294 -0.0145
 1987CO2     O1 2684   0.662   4.140   5.570  0.3567  0.4100  0.2273
 1987CO2     O2 2685   0.557   4.338   5.618  0.3955  0.5812 -0.3386
 1988CO2      C 2686   3.542   0.921   4.597 -1.1646  0.6049  0.4312
 1988CO2     O1 2687   3.508   0.857   4.508  0.6080 -0.6303  0.5791
 1988CO2     O2 2688   3.580   0.984   4.685 -0.1815  0.3076  0.2373
 1989CO2      C 2689   3.403   3.821   0.683 -0.0723  0.0574 -0.5579
 1989CO2     O1 2690   3.302   3.768   0.690  0.0697 -0.1339  0.0755
 1989CO2     O2 2691   3.506   3.870   0.668 -0.0048  0.0293 -0.1763
 1990CO2      C 2692   1.085   2.450   0.677 -0.3772 -0.6713 -0.0139
 1990CO2     O1 2693   1.167   2.371   0.661 -0.1774 -0.5086  0.2052
 1990CO2     O2 2694   1.003   2.528   0.694  0.6805  0.3277  0.6284
 1991CO2      C 2695   2.034   3.324   1.830 -0.0899 -0.5846  0.6540
 1991CO2     O1 2696   2.120   3.389   1.870 -0.4434  0.2482  0.0775
 1991CO2     O2 2697   1.950   3.260   1.785  0.0010 -0.2450 -0.0175
 1992CO2      C 2698   1.256   1.382   5.395 -0.7037 -0.0821 -1.0533
 1992CO2     O1 2699   1.185   1.305   5.443  0.0326 -0.3062 -0.3154
 1992CO2     O2 2700   1.326   1.454   5.341 -0.4404  0.1288 -0.4387
 1993CO2      C 2701   2.247   1.725   1.587  0.1359  0.5697 -0.2104
 1993CO2     O1 2702   2.244   1.776   1.690  0.0167  0.6403 -0.2488
 1993CO2     O2 2703   2.250   1.682   1.481 -0.1616 -0.2466  0.1033
 1994CO2      C 2704   0.069   3.648   7.339 -0.2019 -0.1097 -0.1908
 1994CO2     O1 2705   0.075   3.537   7.310  0.0304 -0.2974  0.5475
 1994CO2     O2 2706   0.064   3.759   7.370 -0.4681 -0.2399  0.2320
 1995CO2      C 2707   2.161   3.536   4.639 -0.2950 -0.7003 -0.5826
 1995CO2     O1 2708   2.155   3.476   4.737  0.1357  0.2631  0.0473
 1995CO2     O2 2709   2.168   3.595   4.541  0.3763 -0.2872 -0.2887
 1996CO2      C 2710   3.003   0.140   7.705 -0.3157  0.2948 -0.1061
 1996CO2     O1 2711   3.048   0.034   7.702 -0.1468  0.3659 -0.0819
 1996CO2     O2 2712   2.967   0.249   7.703 -0.1983  0.3421  0.3405
 1997CO2      C 2713   0.592   1.940   4.515 -0.1039 -0.6823 -0.5237
 1997CO2     O1 2714   0.669   1.955   4.430  0.4670  0.5344  0.1790
 1997CO2     O2 2715   0.518   1.933   4.602  0.1250  0.6907 -0.1888
 1998CO2      C 2716   3.607   0.762   4.907  0.8809  0.1154  0.2518
 1998CO2     O1 2717   3.601   0.812   5.011 -0.1633 -0.5934  0.5560
 1998CO2     O2 2718   3.614   0.710   4.805 -0.1806  0.5196 -0.0415
 1999CO2      C 2719   0.577   2.794   7.701  0.0209  0.2105 -0.4545
 1999CO2     O1 2720   0.647   2.703   7.692 -0.0605  0.1323 -0.2916
 1999CO2     O2 2721   0.499   2.878   7.712 -0.1072  0.0040  0.2318
 2000CO2      C 2722   1.853   2.186   3.657 -0.0944  0.3146 -0.3757
 2000CO2     O1 2723   1.879   2.267   3.733  0.3356 -0.1046 -0.0728
 2000CO2     O2 2724   1.828   2.106   3.578  0.5239 -0.0724 -0.1860
 2001CO2      C 2725   3.357   4.223   0.662  0.0764  0.0580 -0.0582
 2001CO2     O1 2726   3.446   4.295   0.668 -0.2034  0.4535 -0.5562
 2001CO2     O2 2727   3.270   4.148   0.649  0.0813  0.1335 -0.5588
 2002CO2      C 2728   2.569   3.637   1.220  0.0507  0.4564  0.5640
 2002CO2     O1 2729   2.649   3.562   1.255 -0.5473 -0.1441  0.6743
 2002CO2     O2 2730   2.483   3.703   1.181  0.1182  0.3011  0.1461
 2003CO2      C 2731   1.092   2.676   2.772  0.1147  0.1348  0.2305
 2003CO2     O1 2732   1.078   2.637   2.879 -0.2276 -0.2101  0.0650
 2003CO2     O2 2733   1.105   2.710   2.663  0.1546 -0.2732  0.1073
 2004CO2      C 2734   0.796   1.162   6.580  0.3374  0.0011  0.0565
 2004CO2     O1 2735   0.797   1.128   6.690 -0.2770  0.2139  0.1337
 2004CO2     O2 2736   0.789   1.194   6.470  0.6203  0.6557  0.2245
 2005CO2      C 2737   3.589   2.653   2.767 -0.5459  0.1298 -0.0908
 2005CO2     O1 2738   3.628   2.760   2.784 -0.0165 -0.1130  0.2445
 2005CO2     O2 2739   3.546   2.548   2.749 -0.2827  0.0024  0.0180
 2006CO2      C 2740   3.974   0.259   3.546  0.3899  0.1595 -0.0772
 2006CO2     O1 2741   4.064   0.188   3.556  0.5210  0.3250 -0.0817
 2006CO2     O2 2742   3.887   0.332   3.530  0.3287 -0.0181 -0.5505
 2007CO2      C 2743   2.896   1.158   1.003 -0.1206 -0.1563  0.6847
 2007CO2     O1 2744   2.816   1.210   0.940 -0.1885 -0.4498  0.5277
 2007CO2     O2 2745   2.976   1.110   1.070  0.4799  0.0268  0.1083
 2008CO2      C 2746   2.256   3.177   7.176 -0.3838  0.1279  0.6949
 2008CO2     O1 2747   2.208   3.280   7.189  0.2614  0.5599 -0.2367
 2008CO2     O2 2748   2.300   3.071   7.162 -0.2460  0.1994  0.5887
 2009CO2      C 2749   2.646   1.602   7.709 -0.3960 -0.2571 -0.5778
 2009CO2     O1 2750   2.546   1.656   7.725 -0.0387  0.3939 -0.5087
 2009CO2     O2 2751   2.743   1.543   7.693 -0.1193  0.0710 -0.1410
 2010CO2      C 2752   0.981   2.701   7.370  0.1246  0.3386  0.3062
 2010CO2     O1 2753   1.081   2.674   7.420  0.1955 -0.6936 -0.3657
 2010CO2     O2 2754   0.882   2.735   7.323  0.2842  0.3931  0.0031
 2011CO2      C 2755   1.781   3.503   6.629 -0.4194  0.0149 -0.2467
 2011CO2     O1 2756   1.879   3.522   6.686 -0.6861  0.5973  0.0217
 2011CO2     O2 2757   1.683   3.480   6.573 -0.3682 -0.1816 -0.2597
 2012CO2      C 2758   3.308   2.728   2.807 -0.0439  0.1893 -0.3534
 2012CO2     O1 2759   3.275   2.714   2.698 -0.2487  0.7136 -0.3638
 2012CO2     O2 2760   3.341   2.739   2.916 -0.5064  0.5461 -0.2477
 2013CO2      C 2761   2.271   3.920   4.563 -0.3242 -0.3044  0.0333
 2013CO2     O1 2762   2.252   3.989   4.473  0.0051  0.0101  0.2023
 2013CO2     O2 2763   2.293   3.854   4.654  0.0079 -0.1706  0.0514
 2014CO2      C 2764   3.044   2.751   3.390  0.3724  0.3671 -0.7262
 2014CO2     O1 2765   3.117   2.802   3.463  0.1716  0.0575 -0.3030
 2014CO2     O2 2766   2.968   2.700   3.321  0.1129 -0.0212 -0.1669
 2015CO2      C 2767   3.943   2.853   5.698  0.5096  0.2368  0.3695
 2015CO2     O1 2768   4.032   2.820   5.634  0.5091  0.3217  0.3233
 2015CO2     O2 2769   3.858   2.892   5.765 -0.2963 -0.3418 -0.2850
 2016CO2      C 2770   0.139   0.163   1.197  0.3351 -0.4541  0.1863
 2016CO2     O1 2771   0.168   0.076   1.127 -0.2247 -0.1332 -0.4516
 2016CO2     O2 2772   0.106   0.246   1.269 -0.7084 -0.3410 -0.4067
 2017CO2      C 2773   0.903   1.612   3.076 -0.0361  0.1022  0.3877
 2017CO2     O1 2774   0.997   1.675   3.055 -0.5857  0.7190 -0.2639
 2017CO2     O2 2775   0.808   1.552   3.100  0.1324 -0.2416  0.2066
 2018CO2      C 2776   3.114   2.504   5.370 -0.3718  0.3931 -0.5225
 2018CO2     O1 2777   3.093   2.414   5.302 -0.5565  0.2164 -0.2345
 2018CO2     O2 2778   3.136   2.592   5.440  0.0075  0.5071 -0.7805
 2019CO2      C 2779   0.181   3.187   2.107  0.8018  0.1085  1.0059
 2019CO2     O1 2780   0.194   3.294   2.145 -0.1442  0.6138 -0.0475
 2019CO2     O2 2781   0.161   3.079   2.073  0.4486  0.3838  0.3102
 2020CO2      C 2782   4.137   3.112   2.339  0.1757  0.2687 -0.1782
 2020CO2     O1 2783   4.174   3.017   2.287 -0.4030 -0.2442  0.3257
 2020CO2     O2 2784   4.105   3.210   2.390 -0.2785  0.1219 -0.1788
 2021CO2      C 2785   4.294   2.162   7.385 -0.3473 -0.3920 -0.5757
 2021CO2     O1 2786   4.223   2.242   7.344 -0.5543 -0.1415  0.2409
 2021CO2     O2 2787   4.367   2.082   7.423 -0.3191  0.1577  0.5814
 2022CO2      C 2788   3.358   1.601   5.443 -0.1256  0.1395 -0.0850
 2022CO2     O1 2789   3.281   1.681   5.471 -0.0224  0.2611 -0.1439
 2022CO2     O2 2790   3.436   1.521   5.415 -0.4047 -0.5133  0.9628
 2023CO2      C 2791   1.555   2.803   0.656 -0.7974  0.3207  0.4915
 2023CO2     O1 2792   1.501   2.702   0.667 -0.5501  0.0910 -0.3118
 2023CO2     O2 2793   1.611   2.903   0.649 -0.4580  0.0945 -0.0737
 2024CO2      C 2794   3.150   2.885   2.033 -0.0925  0.2441 -0.0526
 2024CO2     O1 2795   3.223   2.821   2.095 -0.3435  0.2595  0.2581
 2024CO2     O2 2796   3.076   2.945   1.970  0.2705  0.2138 -0.5132
 2025CO2      C 2797   0.021   0.924   1.855 -0.2793 -0.0438  0.0504
 2025CO2     O1 2798  -0.022   0.850   1.778  0.1014 -0.3293  0.1090
 2025CO2     O2 2799   0.055   0.999   1.935 -0.2629  0.1121 -0.1001
 2026CO2      C 2800   0.255   2.358   5.699 -0.4120  0.2942  0.2554
 2026CO2     O1 2801   0.247   2.288   5.790  0.6835 -0.0688  0.0863
 2026CO2     O2 2802   0.268   2.427   5.609  0.0697  0.1737  0.2338
 2027CO2      C 2803   0.461   2.831   2.032 -0.3693 -0.0283 -0.4714
 2027CO2     O1 2804   0.455   2.863   1.922 -0.0926 -0.0061 -0.4818
 2027CO2     O2 2805   0.477   2.798   2.141 -0.1581  1.0464 -0.1637
 2028CO2      C 2806   3.482   0.844   1.053  1.0222 -0.0683  0.1281
 2028CO2     O1 2807   3.478   0.881   0.945  0.2299  0.6773  0.4058
 2028CO2     O2 2808   3.481   0.803   1.160 -0.2757 -0.0709  0.1227
 2029CO2      C 2809   4.293   3.581   1.401 -0.2261 -0.2935 -0.6559
 2029CO2     O1 2810   4.295   3.683   1.348  0.3133 -0.1759 -0.4122
 2029CO2     O2 2811   4.291   3.478   1.452 -0.5836  0.0771  0.1004
 2030CO2      C 2812   2.599   1.953   1.237  0.2565 -0.0684  0.2403
 2030CO2     O1 2813   2.561   1.849   1.270  0.9871 -0.4255 -0.0288
 2030CO2     O2 2814   2.643   2.054   1.205  0.0316  0.0777  0.3921
 2031CO2      C 2815   3.748   0.148   6.212  0.8655  0.0289 -0.0595
 2031CO2     O1 2816   3.740   0.214   6.118  1.1000  0.5249  0.2693
 2031CO2     O2 2817   3.755   0.078   6.303  0.4908 -0.3453 -0.3114
 2032CO2      C 2818   3.096   1.613   3.919 -0.3464 -0.1570 -0.5523
 2032CO2     O1 2819   3.083   1.695   3.839 -0.2270  0.3572 -0.0568
 2032CO2     O2 2820   3.103   1.535   4.002 -0.0196  0.5272  0.0822
 2033CO2      C 2821   3.979   2.429   3.874  0.4990  0.0022 -0.3093
 2033CO2     O1 2822   3.992   2.535   3.831  0.4965  0.0473 -0.1994
 2033CO2     O2 2823   3.967   2.323   3.916 -0.0208  0.2231  0.1172
 2034CO2      C 2824   4.001   3.028   3.431  0.1739  0.1538  0.3674
 2034CO2     O1 2825   4.064   2.974   3.351 -0.2533 -0.1312  0.2220
 2034CO2     O2 2826   3.936   3.081   3.509 -0.3461  0.2977 -0.1617
 2035CO2      C 2827   4.306   1.099   7.025 -0.1040 -0.3981 -0.0693
 2035CO2     O1 2828   4.311   1.000   6.966  0.0748 -0.0480 -0.6520
 2035CO2     O2 2829   4.299   1.199   7.080  0.6442 -0.3708 -0.0068
 2036CO2      C 2830   1.484   4.242   5.696 -0.2337 -0.7002 -0.3621
 2036CO2     O1 2831   1.423   4.209   5.788 -0.2993  0.7672  0.1537
 2036CO2     O2 2832   1.546   4.278   5.606  0.1273 -0.2619  0.0522
 2037CO2      C 2833   0.328   0.818   7.059 -0.6379 -0.2278 -0.5294
 2037CO2     O1 2834   0.281   0.821   7.164  0.3314 -0.4228 -0.0865
 2037CO2     O2 2835   0.378   0.820   6.956  0.1163  0.3203 -0.1638
 2038CO2      C 2836   1.955   4.173   6.057 -0.1383  0.3560 -0.7687
 2038CO2     O1 2837   1.967   4.083   5.987  0.3408 -0.3070  0.1559
 2038CO2     O2 2838   1.939   4.262   6.128 -0.2133 -0.5628  0.3988
 2039CO2      C 2839   4.063   4.178   5.603  0.1323  0.3753 -0.0273
 2039CO2     O1 2840   3.975   4.220   5.542  0.0454  0.1077 -0.0881
 2039CO2     O2 2841   4.154   4.146   5.665  0.4155  0.1725 -0.5461
 2040CO2      C 2842   0.399   3.576   1.870 -0.3731 -0.5223  0.3294
 2040CO2     O1 2843   0.453   3.510   1.793 -0.2960 -0.0872  0.0107
 2040CO2     O2 2844   0.345   3.640   1.948 -0.1504  0.1045 -0.0276
 2041CO2      C 2845   0.585   0.638   5.049  0.0317 -0.3863 -0.0823
 2041CO2     O1 2846   0.602   0.581   5.148  0.1318  0.0352  0.1477
 2041CO2     O2 2847   0.572   0.694   4.950  0.1403  0.2170  0.2400
 2042CO2      C 2848   0.542   1.414   6.473 -0.1991  0.0001  0.1428
 2042CO2     O1 2849   0.457   1.337   6.464 -0.0657 -0.1347  0.0217
 2042CO2     O2 2850   0.627   1.491   6.480  0.0503 -0.2791  0.2090
 2043CO2      C 2851   3.326   0.747   7.724  0.1525  0.2418 -0.5882
 2043CO2     O1 2852   3.433   0.709   7.740 -0.0721 -0.1874 -0.0798
 2043CO2     O2 2853   3.218   0.781   7.708 -0.0823 -0.1735  0.0601
 2044CO2      C 2854   1.929   1.359   1.579 -0.8464  0.4125  0.2964
 2044CO2     O1 2855   1.982   1.444   1.523 -0.8637 -0.1785 -0.6371
 2044CO2     O2 2856   1.874   1.282   1.645 -0.4652  0.3372  0.5315
 2045CO2      C 2857   4.058   2.792   3.712  0.0431 -0.3376 -0.3404
 2045CO2     O1 2858   4.095   2.781   3.604  0.4171 -0.1003 -0.2389
 2045CO2     O2 2859   4.023   2.801   3.821  0.0208 -0.9854 -0.2925
 2046CO2      C 2860   2.896   2.843   5.981  0.4279 -0.0204 -0.3415
 2046CO2     O1 2861   2.846   2.874   5.883 -0.0175  0.3449 -0.0029
 2046CO2     O2 2862   2.950   2.810   6.077  0.5993 -0.1508 -0.4816
 2047CO2      C 2863   3.484   4.193   5.576  0.3627  0.0148 -0.6687
 2047CO2     O1 2864   3.419   4.276   5.624  0.1467 -0.4409 -0.1616
 2047CO2     O2 2865   3.543   4.106   5.529 -0.2493 -0.5029 -0.4876
 2048CO2      C 2866   3.162   0.833   0.662 -0.1526  0.1975  0.6399
 2048CO2     O1 2867   3.071   0.764   0.674 -0.0868  0.0990  0.5693
 2048CO2     O2 2868   3.253   0.903   0.653  0.5995 -0.8940 -0.4870
 2049CO2      C 2869   2.987   1.421   5.521 -0.7112  0.7249  0.3439
 2049CO2     O1 2870   2.918   1.397   5.432 -0.2548 -0.0514  0.1934
 2049CO2     O2 2871   3.055   1.439   5.611 -0.3627 -0.0240  0.2442
 2050CO2      C 2872   3.121   0.198   0.678  0.3340 -0.4175 -0.3940
 2050CO2     O1 2873   3.124   0.309   0.648  0.0085 -0.2885  0.0436
 2050CO2     O2 2874   3.118   0.085   0.699  0.3810 -0.3919 -0.2484
 2051CO2      C 2875   1.345   2.352   4.948  0.6248 -0.1476  0.3638
 2051CO2     O1 2876   1.290   2.278   4.879  0.5322  0.4386 -0.1923
 2051CO2     O2 2877   1.400   2.429   5.012  0.2243  0.7513 -0.3521
 2052CO2      C 2878   3.136   0.184   3.441  0.0611 -0.2110 -0.4865
 2052CO2     O1 2879   3.082   0.144   3.348 -0.2766  0.2550 -0.4973
 2052CO2     O2 2880   3.196   0.224   3.530 -0.0222 -0.3584 -0.3629
 2053CO2      C 2881   1.200   1.967   4.045 -0.5071  0.0070 -0.2711
 2053CO2     O1 2882   1.254   1.902   4.122 -0.1407  0.0465 -0.4916
 2053CO2     O2 2883   1.141   2.027   3.966 -0.3883  0.2006 -0.2142
 2054CO2      C 2884   3.632   1.340   4.094  0.0674  0.8039  0.5381
 2054CO2     O1 2885   3.546   1.401   4.140 -0.8597 -0.2518  0.2551
 2054CO2     O2 2886   3.712   1.277   4.040 -0.4416  0.3629  0.2819
 2055CO2      C 2887   3.468   1.290   5.618  0.0761  0.2690 -0.1048
 2055CO2     O1 2888   3.439   1.193   5.566  0.5607  0.1370 -0.1398
 2055CO2     O2 2889   3.496   1.385   5.678  0.6197  0.2271 -0.2801
 2056CO2      C 2890   1.445   1.024   7.693  0.1306 -0.4491 -0.1056
 2056CO2     O1 2891   1.468   1.135   7.676 -0.3762 -0.3045  0.1284
 2056CO2     O2 2892   1.429   0.912   7.715 -0.3042 -0.3972 -0.1549
 2057CO2      C 2893   1.160   2.045   4.531 -0.0942  0.1160 -0.0042
 2057CO2     O1 2894   1.223   2.024   4.624  0.5300 -0.1061 -0.4707
 2057CO2     O2 2895   1.098   2.066   4.436 -0.0332  0.3935  0.0174
 2058CO2      C 2896   0.109   2.900   3.744 -0.3296 -0.0480  0.3831
 2058CO2     O1 2897   0.130   3.013   3.740  0.4471 -0.1900  0.0889
 2058CO2     O2 2898   0.093   2.786   3.744  0.0858 -0.1146 -0.1373
 2059CO2      C 2899   1.347   1.137   1.469  0.1819  0.0615 -0.0380
 2059CO2     O1 2900   1.358   1.026   1.497  0.2294  0.1692  0.3794
 2059CO2     O2 2901   1.330   1.249   1.450 -0.3105  0.0669  0.4213
 2060CO2      C 2902   3.895   3.895   7.700  0.3404  0.3525 -0.0005
 2060CO2     O1 2903   3.964   3.803   7.703  0.0418  0.0852 -0.9686
 2060CO2     O2 2904   3.823   3.984   7.695  0.0023  0.1129  0.5328
 2061CO2      C 2905   1.268   1.807   0.760  0.4043 -0.5695  0.0078
 2061CO2     O1 2906   1.264   1.804   0.875  0.5493  0.0250  0.0324
 2061CO2     O2 2907   1.276   1.815   0.645  0.4445  0.4279  0.0735
 2062CO2      C 2908   1.314   1.911   7.723  0.1613 -0.0028 -0.0943
 2062CO2     O1 2909   1.203   1.882   7.711  0.1029  0.0708  0.2543
 2062CO2     O2 2910   1.424   1.940   7.734  0.2284 -0.1127 -0.4672
 2063CO2      C 2911   3.565   2.112   6.635 -0.1549 -0.2459 -0.3199
 2063CO2     O1 2912   3.548   2.086   6.746 -0.2925 -0.2715 -0.3471
 2063CO2     O2 2913   3.584   2.143   6.526 -0.8846 -0.1676 -0.4285
 2064CO2      C 2914   1.198   2.500   5.324  0.4802 -0.2247 -0.4742
 2064CO2     O1 2915   1.113   2.469   5.253  0.0825 -0.4562  0.0942
 2064CO2     O2 2916   1.279   2.536   5.398  0.1465  0.0802 -0.2524
 2065CO2      C 2917   2.739   0.057   0.677  0.2639 -0.2897 -0.6033
 2065CO2     O1 2918   2.644  -0.006   0.692  0.2611 -0.1428  0.0123
 2065CO2     O2 2919   2.833   0.122   0.666  0.1278 -0.0523 -0.3630
 2066CO2      C 2920   0.906   0.133   1.721  0.0932  0.1674 -0.2147
 2066CO2     O1 2921   0.932   0.047   1.792 -0.0465  0.1831 -0.1457
 2066CO2     O2 2922   0.880   0.217   1.646  0.3570  0.7536  0.3411
 2067CO2      C 2923   2.105   2.028   2.405  0.2478 -0.0154 -0.1021
 2067CO2     O1 2924   2.058   1.960   2.325 -0.4373  0.8151 -0.4117
 2067CO2     O2 2925   2.147   2.098   2.485  0.0610  0.5104 -0.4600
 2068CO2      C 2926   3.472   2.733   3.608  0.4693 -0.2214 -0.0949
 2068CO2     O1 2927   3.517   2.836   3.629  0.3942 -0.0728 -0.6444
 2068CO2     O2 2928   3.422   2.631   3.589 -0.6270  0.2311  0.3263
 2069CO2      C 2929   0.627   2.177   7.263 -0.1458  0.7241 -0.8346
 2069CO2     O1 2930   0.648   2.240   7.356  0.1310 -0.3327 -0.1670
 2069CO2     O2 2931   0.608   2.115   7.167 -0.2936  0.0108 -0.3517
 2070CO2      C 2932   2.811   0.604   6.668  0.2965 -0.2797  0.2778
 2070CO2     O1 2933   2.900   0.660   6.714  0.5398 -0.2356 -0.2501
 2070CO2     O2 2934   2.724   0.550   6.615  0.3827  0.0579 -0.2057
 2071CO2      C 2935   2.302   1.261   4.038  0.1243 -0.2580 -0.3934
 2071CO2     O1 2936   2.240   1.348   4.081  0.0978 -0.4112 -0.1244
 2071CO2     O2 2937   2.360   1.174   3.990  0.2551 -0.1871 -0.3652
 2072CO2      C 2938   1.316   3.056   7.315  0.4300  0.1196  0.6022
 2072CO2     O1 2939   1.214   3.004   7.325  0.3531  0.1887  0.1596
 2072CO2     O2 2940   1.419   3.107   7.310  0.4666  0.0776  0.8894
 2073CO2      C 2941   3.925   1.603   3.138 -0.2156  0.5035  0.2238
 2073CO2     O1 2942   3.944   1.656   3.239  0.6650 -0.0262  0.3444
 2073CO2     O2 2943   3.908   1.556   3.035 -1.3303  0.2496  0.5074
 2074CO2      C 2944   1.219   0.776   3.343 -0.2165 -0.2671 -0.1586
 2074CO2     O1 2945   1.159   0.874   3.337  0.1003 -0.0655 -0.0991
 2074CO2     O2 2946   1.282   0.680   3.348  0.4735  0.1939  0.1587
 2075CO2      C 2947   1.227   1.073   4.108 -0.2403 -0.1966 -0.3548
 2075CO2     O1 2948   1.242   1.042   3.998 -0.3103 -0.2656 -0.3452
 2075CO2     O2 2949   1.212   1.102   4.218 -0.3264 -0.2134 -0.3618
 2076CO2      C 2950   2.135   0.653   7.686 -0.6798 -0.5100 -0.2522
 2076CO2     O1 2951   2.146   0.546   7.724 -0.0039 -0.1865  0.5078
 2076CO2     O2 2952   2.122   0.762   7.651 -0.1446 -0.5892 -0.7235
 2077CO2      C 2953   0.923   1.290   5.426  0.2853  0.1438  0.0858
 2077CO2     O1 2954   0.937   1.349   5.523  0.5133  0.5175 -0.1711
 2077CO2     O2 2955   0.912   1.230   5.328 -0.1933  0.3031  0.0396
 2078CO2      C 2956   0.046   3.357   0.668 -0.5467 -0.2557  0.1769
 2078CO2     O1 2957   0.067   3.247   0.695 -0.1351 -0.2008  0.0874
 2078CO2     O2 2958   0.032   3.469   0.647 -0.0859 -0.1968  0.1765
 2079CO2      C 2959   0.694   4.279   3.976  0.4644 -0.8292  0.0726
 2079CO2     O1 2960   0.711   4.258   4.087 -0.2370  0.6915  0.5005
 2079CO2     O2 2961   0.672   4.305   3.866  0.1863  0.2596  0.3696
 2080CO2      C 2962   2.279   1.076   6.347  0.2530 -0.0072 -0.0783
 2080CO2     O1 2963   2.307   1.186   6.364 -0.2311  0.0868  0.1113
 2080CO2     O2 2964   2.250   0.967   6.325 -0.0422 -0.0482  0.4834
 2081CO2      C 2965   2.596   1.330   4.816  0.0771  0.1411 -0.3981
 2081CO2     O1 2966   2.549   1.414   4.878 -0.2979  0.3611 -0.9681
 2081CO2     O2 2967   2.639   1.243   4.755  0.0927 -0.0729 -0.0856
 2082CO2      C 2968   4.243   2.536   3.203  0.0212 -0.0575  0.1433
 2082CO2     O1 2969   4.283   2.430   3.188 -0.4646 -0.2255  0.0232
 2082CO2     O2 2970   4.202   2.643   3.219  0.3890  0.1013  0.0243
 2083CO2      C 2971   4.101   2.382   1.152  0.2833  0.5330  0.1574
 2083CO2     O1 2972   4.168   2.450   1.088  0.5060  0.0365 -0.1369
 2083CO2     O2 2973   4.027   2.322   1.216 -0.2720  0.8099 -0.2224
 2084CO2      C 2974   1.489   3.621   6.727 -0.1817 -0.0948  0.6947
 2084CO2     O1 2975   1.404   3.657   6.658  0.2286 -0.0989  0.1805
 2084CO2     O2 2976   1.572   3.591   6.800 -0.2911  0.0149  0.8643
 2085CO2      C 2977   0.237   2.376   2.883  0.0729 -0.1709  0.3221
 2085CO2     O1 2978   0.260   2.263   2.891 -0.3271 -0.2856 -0.1342
 2085CO2     O2 2979   0.206   2.486   2.869  0.3762 -0.1048  0.1647
 2086CO2      C 2980   1.170   3.454   6.855 -0.4737  0.1091  0.3519
 2086CO2     O1 2981   1.058   3.477   6.841 -0.4955 -0.1253  0.1278
 2086CO2     O2 2982   1.283   3.437   6.863 -0.5567 -0.4943  0.3099
 2087CO2      C 2983   3.562   1.681   1.262  0.7666  0.2892 -0.4023
 2087CO2     O1 2984   3.497   1.756   1.204 -0.2352  0.1017  0.4515
 2087CO2     O2 2985   3.621   1.604   1.324 -0.8072 -0.3911  0.3066
 2088CO2      C 2986   0.979   0.457   0.675  0.1356  0.1433 -0.0347
 2088CO2     O1 2987   1.053   0.533   0.719  0.1645 -0.0997  0.3443
 2088CO2     O2 2988   0.913   0.368   0.643  0.5219 -0.1407 -0.0575
 2089CO2      C 2989   3.879   2.416   2.735 -0.2161 -0.5328  0.5271
 2089CO2     O1 2990   3.917   2.354   2.646 -0.5168  0.0828 -0.0445
 2089CO2     O2 2991   3.846   2.479   2.825  0.3609 -0.0390  0.4034
 2090CO2      C 2992   3.749   1.552   5.658 -0.2452 -0.2814  0.0393
 2090CO2     O1 2993   3.725   1.625   5.573  1.0042  0.0491 -0.0440
 2090CO2     O2 2994   3.775   1.475   5.739 -0.4993 -0.3101  0.0946
 2091CO2      C 2995   0.876   1.545   6.067  0.0369 -0.0847 -0.3113
 2091CO2     O1 2996   0.762   1.555   6.071 -0.0096 -0.9005  0.5521
 2091CO2     O2 2997   0.990   1.530   6.067  0.1171  0.4927  0.1833
 2092CO2      C 2998   0.538   2.581   1.443 -0.1603  0.8926  0.0821
 2092CO2     O1 2999   0.578   2.605   1.548  0.2601  0.2257  0.0800
 2092CO2     O2 3000   0.506   2.551   1.337 -0.4738  0.3806  0.3205
 2093CO2      C 3001   1.402   2.687   4.802  0.0585  0.3196 -0.0644
 2093CO2     O1 3002   1.327   2.636   4.731  0.0537  0.4982 -0.1884
 2093CO2     O2 3003   1.475   2.744   4.869  0.2012  0.4150 -0.3000
 2094CO2      C 3004   1.469   2.652   5.188 -0.0763 -0.3438  0.1829
 2094CO2     O1 3005   1.553   2.576   5.206 -0.1919 -0.3708  0.6215
 2094CO2     O2 3006   1.386   2.729   5.171  0.3132  0.0469  0.0391
 2095CO2      C 3007   3.104   4.081   4.016 -0.3565  0.2614 -0.0624
 2095CO2     O1 3008   2.992   4.093   3.995 -0.2030  0.0674 -1.0360
 2095CO2     O2 3009   3.218   4.071   4.031 -0.4082 -0.2474  0.0083
 2096CO2      C 3010   0.479   2.646   0.988  0.5086 -0.0955 -0.6845
 2096CO2     O1 3011   0.523   2.748   0.959  0.3822  0.1284 -0.0888
 2096CO2     O2 3012   0.438   2.542   1.012  0.5125 -0.0439 -0.4505
 2097CO2      C 3013   4.311   3.644   4.762  0.5603 -0.2854  0.0455
 2097CO2     O1 3014   4.365   3.744   4.777  0.3404 -0.0711 -0.5455
 2097CO2     O2 3015   4.262   3.540   4.750  0.3386 -0.1507 -0.2215
 2098CO2      C 3016   2.046   3.798   4.899  0.2138  0.0032  0.3015
 2098CO2     O1 3017   2.100   3.820   4.997  0.7741 -0.0501  0.0064
 2098CO2     O2 3018   1.998   3.772   4.798  0.3898  0.4557  0.1003
 2099CO2      C 3019   2.479   0.858   2.251 -0.2957 -0.0836 -0.1294
 2099CO2     O1 3020   2.564   0.866   2.174 -0.1064  0.0726  0.0938
 2099CO2     O2 3021   2.400   0.858   2.334 -0.2898  0.3518 -0.1186
 2100CO2      C 3022   4.263   0.535   3.523  0.1337  0.0765 -0.5266
 2100CO2     O1 3023   4.377   0.526   3.540  0.0637 -0.1149 -0.1306
 2100CO2     O2 3024   4.151   0.545   3.504  0.0585  0.5471  0.1276
 2101CO2      C 3025   0.835   1.163   0.642 -0.5293 -0.0528 -0.1089
 2101CO2     O1 3026   0.923   1.090   0.629 -0.3581  0.1360 -0.0172
 2101CO2     O2 3027   0.752   1.242   0.648 -0.4196  0.0839 -0.3806
 2102CO2      C 3028   1.743   2.862   1.701 -0.2749  0.4935  0.2209
 2102CO2     O1 3029   1.724   2.931   1.611 -0.0612  0.0485 -0.1714
 2102CO2     O2 3030   1.763   2.798   1.794  0.0632  0.1811 -0.0632
 2103CO2      C 3031   1.778   2.895   6.804 -0.6018 -0.4902 -0.2824
 2103CO2     O1 3032   1.879   2.865   6.850 -0.4909 -0.1901 -0.3307
 2103CO2     O2 3033   1.678   2.929   6.761 -0.3527 -0.5514 -0.9182
 2104CO2      C 3034   1.966   2.493   4.016 -0.0944  0.0268 -0.0466
 2104CO2     O1 3035   2.041   2.574   3.984  0.1799 -0.0902  0.2867
 2104CO2     O2 3036   1.891   2.413   4.049 -0.3605  0.0068 -0.6854
 2105CO2      C 3037   3.978   4.262   3.333  0.1227  0.3557  0.1849
 2105CO2     O1 3038   3.866   4.245   3.309  0.2218 -0.3103  0.1702
 2105CO2     O2 3039   4.088   4.283   3.358 -0.0191  0.7203  0.5084
 2106CO2      C 3040   0.527   0.823   1.099 -0.6080  0.4467  0.3447
 2106CO2     O1 3041   0.440   0.749   1.091  0.0249 -0.2540 -0.2092
 2106CO2     O2 3042   0.614   0.898   1.108 -0.2623  0.0595  0.2614
 2107CO2      C 3043   1.705   1.077   7.331 -0.0708 -0.1689 -0.2470
 2107CO2     O1 3044   1.692   1.190   7.346 -0.5812 -0.2613  0.0229
 2107CO2     O2 3045   1.715   0.963   7.318 -0.1631 -0.2493  0.3412
 2108CO2      C 3046   3.063   0.331   1.036 -0.7486  0.0846 -0.5247
 2108CO2     O1 3047   3.017   0.317   1.140  0.1418  0.3754 -0.0780
 2108CO2     O2 3048   3.109   0.343   0.931 -0.1830  0.2999 -0.2548
 2109CO2      C 3049   2.174   4.146   1.327 -0.7260 -0.1641  0.1041
 2109CO2     O1 3050   2.229   4.052   1.291  0.2333  0.5578 -0.3727
 2109CO2     O2 3051   2.118   4.239   1.365 -0.3378 -0.0380  0.3821
 2110CO2      C 3052   3.185   1.343   3.523  0.3453 -0.2190 -0.0275
 2110CO2     O1 3053   3.270   1.417   3.504 -0.3378  0.4291 -0.6362
 2110CO2     O2 3054   3.104   1.264   3.544  0.0008  0.0718 -0.2480
 2111CO2      C 3055   1.137   3.477   6.075  0.2134 -0.0177  0.0156
 2111CO2     O1 3056   1.182   3.500   6.178  0.3342  0.1504 -0.0747
 2111CO2     O2 3057   1.093   3.457   5.971 -0.4401  0.1329  0.2592
 2112CO2      C 3058   0.913   3.466   4.692  0.3973 -0.3271  0.2312
 2112CO2     O1 3059   0.893   3.376   4.760  0.0129 -0.4390 -0.0280
 2112CO2     O2 3060   0.932   3.555   4.621 -0.0046 -0.0810  0.4302
 2113CO2      C 3061   1.326   1.956   5.377  0.3629  0.2885  0.4385
 2113CO2     O1 3062   1.222   1.922   5.340  0.5321 -0.0832  0.2954
 2113CO2     O2 3063   1.431   1.987   5.413  0.5619  0.1751 -0.0315
 2114CO2      C 3064   2.216   0.485   2.062  0.4879  0.6266 -0.0773
 2114CO2     O1 3065   2.198   0.495   2.175  0.4030  0.4195 -0.0707
 2114CO2     O2 3066   2.236   0.470   1.950 -0.4615 -0.3211 -0.1463
 2115CO2      C 3067   0.771   3.120   2.964 -0.7341  0.3506 -0.4924
 2115CO2     O1 3068   0.844   3.175   2.894 -0.0397  0.9935  0.7018
 2115CO2     O2 3069   0.697   3.066   3.034  0.0705 -0.3013 -0.1214
 2116CO2      C 3070   3.238   2.409   3.716  0.6399 -0.0176  0.2774
 2116CO2     O1 3071   3.309   2.334   3.666 -0.1349 -0.4731 -0.1646
 2116CO2     O2 3072   3.168   2.484   3.767 -0.2687 -0.2848 -0.5453
 2117CO2      C 3073   2.520   0.693   7.704  0.0400  0.0564  0.8276
 2117CO2     O1 3074   2.625   0.647   7.697 -0.0938 -0.1152 -0.1236
 2117CO2     O2 3075   2.414   0.736   7.709 -0.0520 -0.0512 -0.0075
 2118CO2      C 3076   0.841   1.156   1.897  0.4260 -0.5464 -0.3176
 2118CO2     O1 3077   0.746   1.144   1.834  0.0632  0.4711  0.0241
 2118CO2     O2 3078   0.939   1.170   1.955  0.1261  0.3018 -0.0166
 2119CO2      C 3079   1.594   1.017   1.055 -0.1518 -0.3265 -0.0044
 2119CO2     O1 3080   1.566   0.926   0.991  0.0679 -0.2294 -0.2384
 2119CO2     O2 3081   1.621   1.108   1.120  0.0359 -0.5398  0.2217
 2120CO2      C 3082   0.562   1.028   6.820 -0.2419  0.1285  0.3056
 2120CO2     O1 3083   0.499   1.075   6.736 -0.2984 -0.4236  0.0344
 2120CO2     O2 3084   0.624   0.986   6.908  0.6621  0.3499 -0.2163
 2121CO2      C 3085   0.169   2.998   1.767 -0.0527 -0.6815 -0.4761
 2121CO2     O1 3086   0.265   3.055   1.739 -0.5232  0.3313 -0.0995
 2121CO2     O2 3087   0.072   2.944   1.795 -0.0600 -0.4927 -0.1283
 2122CO2      C 3088   0.762   2.026   4.749  0.7461 -0.1831  0.2866
 2122CO2     O1 3089   0.849   2.033   4.674  0.5651 -0.3108  0.0656
 2122CO2     O2 3090   0.675   2.021   4.824  0.1553  0.1900 -0.3719
 2123CO2      C 3091   2.024   3.711   4.241  0.1398 -0.6991 -0.5295
 2123CO2     O1 3092   1.944   3.631   4.260  0.0886 -0.5045  0.1073
 2123CO2     O2 3093   2.107   3.788   4.224  0.3367 -0.9447 -0.6990
 2124CO2      C 3094   3.215   2.322   6.374 -0.0183 -0.5547  0.6688
 2124CO2     O1 3095   3.249   2.260   6.283 -0.1274  0.0018  0.2475
 2124CO2     O2 3096   3.177   2.383   6.464 -0.5510  0.0213  0.0603
 2125CO2      C 3097   2.415   2.809   1.342  0.0698  0.1399 -0.3054
 2125CO2     O1 3098   2.372   2.729   1.272 -0.2959  0.0140  0.0592
 2125CO2     O2 3099   2.459   2.888   1.413 -0.0801 -0.1607  0.1280
 2126CO2      C 3100   0.090   0.866   3.520  0.0349 -0.1945  0.1315
 2126CO2     O1 3101   0.053   0.921   3.426  0.7232 -0.1029 -0.0884
 2126CO2     O2 3102   0.125   0.811   3.614  0.0639 -0.3781  0.0144
 2127CO2      C 3103   0.844   1.861   5.291  0.6580  0.5903  0.1129
 2127CO2     O1 3104   0.846   1.944   5.212 -0.3497  0.1591 -0.3935
 2127CO2     O2 3105   0.839   1.775   5.368  0.6265  0.1735 -0.3502
 2128CO2      C 3106   1.752   3.147   0.663  0.7973  0.9602 -0.9708
 2128CO2     O1 3107   1.659   3.213   0.671  0.1264 -0.0587 -0.1691
 2128CO2     O2 3108   1.847   3.082   0.659  0.4339  0.3098  0.2691
 2129CO2      C 3109   1.146   3.920   0.668  0.0340  0.0699 -0.0072
 2129CO2     O1 3110   1.053   3.859   0.696 -0.2030  0.2664 -0.3630
 2129CO2     O2 3111   1.240   3.980   0.639  0.1663  0.2000  0.6724
 2130CO2      C 3112   0.089   1.101   0.665  0.5092 -0.0166  0.2302
 2130CO2     O1 3113   0.111   1.212   0.679  0.1127  0.0216  0.5934
 2130CO2     O2 3114   0.072   0.987   0.657  0.5689  0.0023 -0.2035
 2131CO2      C 3115   3.311   2.523   3.337  0.0265  0.0430 -0.7506
 2131CO2     O1 3116   3.334   2.411   3.349 -0.3004  0.0309 -0.1635
 2131CO2     O2 3117   3.296   2.637   3.336 -0.1405  0.0355  0.1911
 2132CO2      C 3118   1.443   4.204   4.182  0.0831  0.3176  0.0649
 2132CO2     O1 3119   1.403   4.309   4.205  0.0151  0.2705  0.1600
 2132CO2     O2 3120   1.483   4.099   4.160  0.4414  0.4156  0.2447
 2133CO2      C 3121   1.106   1.211   6.792 -0.6594 -0.2925 -0.3445
 2133CO2     O1 3122   1.055   1.314   6.783 -0.3992 -0.0968  0.2879
 2133CO2     O2 3123   1.152   1.108   6.811  0.0280  0.1509  0.5077
 2134CO2      C 3124   2.794   1.438   6.011 -0.3486  0.0983 -0.0284
 2134CO2     O1 3125   2.770   1.417   5.901 -0.2405  0.3603 -0.1031
 2134CO2     O2 3126   2.818   1.463   6.120 -0.4473  0.6142 -0.1245
 2135CO2      C 3127   2.126   4.156   4.843  0.7634 -0.1902  0.1577
 2135CO2     O1 3128   2.104   4.068   4.773 -0.0811  0.0364  0.1263
 2135CO2     O2 3129   2.147   4.246   4.911 -0.1221  0.1146  0.0506
 2136CO2      C 3130   1.811   0.916   2.520  0.4443 -0.2117 -0.3352
 2136CO2     O1 3131   1.745   0.942   2.430  0.0139  0.6678  0.2144
 2136CO2     O2 3132   1.875   0.895   2.613 -0.4724 -0.4328  0.2535
 2137CO2      C 3133   3.848   1.210   5.471 -0.4517  0.8073 -0.6802
 2137CO2     O1 3134   3.770   1.249   5.546  0.2008  0.4461  0.2122
 2137CO2     O2 3135   3.929   1.171   5.399  0.1458  0.0219  0.3756
 2138CO2      C 3136   0.848   0.712   3.337 -0.0709 -0.4078  0.5726
 2138CO2     O1 3137   0.757   0.780   3.355 -0.5895 -0.9084 -0.0684
 2138CO2     O2 3138   0.942   0.651   3.310 -0.0901 -0.0564 -0.3332
 2139CO2      C 3139   0.273   1.114   1.630  0.2067 -0.1481 -0.0752
 2139CO2     O1 3140   0.225   1.218   1.636 -0.1407 -0.3549  0.8172
 2139CO2     O2 3141   0.330   1.014   1.634  0.4172 -0.0485 -0.4721
 2140CO2      C 3142   1.020   3.800   5.779  0.2195  0.3343  0.4810
 2140CO2     O1 3143   1.073   3.774   5.878  0.5558 -0.1545  0.1788
 2140CO2     O2 3144   0.965   3.832   5.684  0.3187  0.1454  0.3585
 2141CO2      C 3145   2.754   1.869   6.332  0.1037  0.3276 -0.0199
 2141CO2     O1 3146   2.716   1.974   6.305  0.0288  0.0595 -0.9731
 2141CO2     O2 3147   2.797   1.766   6.357  0.1541  0.3414 -0.0491
 2142CO2      C 3148   2.970   3.927   6.579 -0.1393  0.3019  0.0404
 2142CO2     O1 3149   2.862   3.888   6.589 -0.3789  0.7314 -0.7597
 2142CO2     O2 3150   3.074   3.974   6.568 -0.2633  0.7272  0.6358
 2143CO2      C 3151   1.950   0.018   2.524  0.0695 -0.0789 -0.1476
 2143CO2     O1 3152   2.057   0.010   2.485 -0.0062 -0.0671 -0.3565
 2143CO2     O2 3153   1.840   0.024   2.557  0.0740  0.2012 -0.1814
 2144CO2      C 3154   3.073   2.708   4.420  0.1430  0.0512  0.2046
 2144CO2     O1 3155   2.981   2.665   4.475  0.1982  0.1489  0.3750
 2144CO2     O2 3156   3.158   2.756   4.360 -0.0261 -0.5916 -0.5580
 2145CO2      C 3157   0.481   2.234   6.827 -0.3223  0.3561  0.1601
 2145CO2     O1 3158   0.378   2.262   6.786 -0.4219 -0.0545  0.1305
 2145CO2     O2 3159   0.584   2.201   6.868 -0.1532  0.0614 -0.4894
 2146CO2      C 3160   3.432   4.166   3.831 -0.5912 -0.5249  0.0826
 2146CO2     O1 3161   3.343   4.239   3.833  0.3336  0.6562 -0.2325
 2146CO2     O2 3162   3.520   4.092   3.830 -0.3074 -0.1908  0.1314
 2147CO2      C 3163   3.443   1.115   3.733  0.0889 -0.2448 -0.0307
 2147CO2     O1 3164   3.372   1.192   3.685  0.7334  0.0940 -0.4607
 2147CO2     O2 3165   3.514   1.041   3.784  0.0798  0.0958  0.4797
 2148CO2      C 3166   2.997   4.025   0.681 -0.7688 -0.5095  0.2705
 2148CO2     O1 3167   2.941   4.124   0.699 -0.5853 -0.2808 -0.4146
 2148CO2     O2 3168   3.057   3.929   0.660 -0.1791 -0.2763  0.8217
 2149CO2      C 3169   2.419   0.677   0.972 -0.0496  0.1773  0.1698
 2149CO2     O1 3170   2.467   0.599   1.041  0.0955  0.0529 -0.0734
 2149CO2     O2 3171   2.377   0.757   0.901  0.0945 -0.0911 -0.2138
 2150CO2      C 3172   0.544   3.842   2.730 -0.0498  0.3230  0.0717
 2150CO2     O1 3173   0.461   3.889   2.665 -0.1836 -0.2184 -0.1479
 2150CO2     O2 3174   0.627   3.804   2.799 -0.2448 -0.5865 -0.1849
 2151CO2      C 3175   0.098   4.210   7.710  0.0921  0.4833  0.2341
 2151CO2     O1 3176   0.143   4.314   7.728 -0.2446  0.6427  0.1403
 2151CO2     O2 3177   0.052   4.106   7.694 -0.0327  0.6074 -0.2278
 2152CO2      C 3178   2.000   2.978   7.117 -0.9383 -0.1819  0.1255
 2152CO2     O1 3179   2.002   3.088   7.086 -0.6066 -0.3500 -0.4711
 2152CO2     O2 3180   2.001   2.865   7.140 -0.6032 -0.2896 -0.3910
 2153CO2      C 3181   2.185   2.442   4.792 -0.3295 -0.0596  0.1920
 2153CO2     O1 3182   2.152   2.370   4.875 -0.3622  0.1386  0.3534
 2153CO2     O2 3183   2.218   2.516   4.711  0.0403 -0.6695 -0.2204
 2154CO2      C 3184   3.328   2.565   1.864  0.3292 -0.6806 -0.0466
 2154CO2     O1 3185   3.340   2.626   1.768 -0.2470 -0.6199 -0.0864
 2154CO2     O2 3186   3.317   2.498   1.957 -0.5263 -0.3133  0.1299
 2155CO2      C 3187   1.705   0.155   1.096 -0.3566 -0.1365 -0.0575
 2155CO2     O1 3188   1.654   0.204   1.006 -0.4133 -0.1955 -0.0570
 2155CO2     O2 3189   1.759   0.107   1.186 -0.4443 -0.5251 -0.2111
 2156CO2      C 3190   3.716   2.120   4.483 -0.4133  0.3539  0.2053
 2156CO2     O1 3191   3.719   2.006   4.475  0.2187  0.3984 -0.2267
 2156CO2     O2 3192   3.711   2.235   4.488 -0.3639  0.3599  0.1138
 2157CO2      C 3193   2.763   2.253   7.690 -0.6799  0.2668 -0.2501
 2157CO2     O1 3194   2.684   2.172   7.669 -0.4882  0.0486 -0.1377
 2157CO2     O2 3195   2.847   2.326   7.718 -0.8032  0.2760  0.0931
 2158CO2      C 3196   2.615   2.414   1.326  0.3324 -0.5063 -0.1523
 2158CO2     O1 3197   2.516   2.451   1.371  0.4735 -0.2835 -0.0231
 2158CO2     O2 3198   2.712   2.375   1.279  0.3688  0.0725 -0.5697
 2159CO2      C 3199   0.201   3.162   7.354  0.3405 -0.4674  0.1500
 2159CO2     O1 3200   0.263   3.255   7.377  0.2097 -0.2945 -0.1874
 2159CO2     O2 3201   0.143   3.064   7.335 -0.4296 -0.0136  0.1332
 2160CO2      C 3202   3.696   2.631   3.936  0.5652 -0.9046  0.2840
 2160CO2     O1 3203   3.729   2.724   3.995 -0.5595 -0.1651 -0.2216
 2160CO2     O2 3204   3.663   2.541   3.873  0.0485 -0.3907 -0.1876
 2161CO2      C 3205   2.987   1.549   6.531  0.3101  0.0974  0.4015
 2161CO2     O1 3206   2.880   1.537   6.571 -0.0097  0.1098 -0.4427
 2161CO2     O2 3207   3.094   1.560   6.489  0.0986  0.1186 -0.1407
 2162CO2      C 3208   3.042   1.739   6.757 -0.5260  0.0304 -0.0519
 2162CO2     O1 3209   3.038   1.632   6.800 -0.0049  0.0600  0.0779
 2162CO2     O2 3210   3.038   1.844   6.712  0.1249  0.1491  0.1665
 2163CO2      C 3211   0.838   3.717   3.011 -0.0131 -0.4807  0.2572
 2163CO2     O1 3212   0.833   3.831   3.023 -0.0806 -0.4525 -0.0191
 2163CO2     O2 3213   0.850   3.603   3.008  0.4601 -0.4344  0.4272
 2164CO2      C 3214   3.171   2.811   7.722 -0.2722  0.1255 -0.3325
 2164CO2     O1 3215   3.249   2.728   7.739 -0.0962  0.2896 -0.3426
 2164CO2     O2 3216   3.092   2.891   7.701 -0.1306  0.2625 -0.3404
 2165CO2      C 3217   3.796   2.298   0.973 -0.1482 -0.3677 -0.0702
 2165CO2     O1 3218   3.866   2.388   0.963 -0.7050  0.0635 -0.0698
 2165CO2     O2 3219   3.732   2.205   0.992 -0.3901 -0.1419  0.2203
 2166CO2      C 3220   2.769   1.462   3.549  0.0693 -0.7887 -0.0927
 2166CO2     O1 3221   2.659   1.443   3.579  0.0835 -0.4764  0.1605
 2166CO2     O2 3222   2.877   1.487   3.520  0.0664 -0.1502  0.4148
 2167CO2      C 3223   3.965   0.144   2.376 -0.0536  0.1971  0.1057
 2167CO2     O1 3224   4.020   0.110   2.281  0.3264 -0.0802  0.4188
 2167CO2     O2 3225   3.904   0.169   2.470 -0.3359  0.1498 -0.0647
 2168CO2      C 3226   2.697   0.527   6.968 -0.0228 -0.4320 -0.1235
 2168CO2     O1 3227   2.683   0.612   6.892 -0.2860 -0.5545 -0.2144
 2168CO2     O2 3228   2.710   0.438   7.040  0.0763 -0.3725 -0.0666
 2169CO2      C 3229   0.697   1.708   3.385  0.1519  0.0157  0.0568
 2169CO2     O1 3230   0.785   1.762   3.334 -0.1795  0.2301 -0.2885
 2169CO2     O2 3231   0.607   1.656   3.433  0.0987  0.2152  0.1761
 2170CO2      C 3232   3.279   1.081   4.173  0.3459  0.3123  0.6654
 2170CO2     O1 3233   3.222   0.997   4.227  0.5652 -0.5809 -0.4631
 2170CO2     O2 3234   3.340   1.161   4.117 -0.3721  0.4205  0.0183
 2171CO2      C 3235   1.960   3.517   7.685 -0.0211  0.0700  0.1726
 2171CO2     O1 3236   1.861   3.458   7.677  0.1488 -0.1886 -0.0413
 2171CO2     O2 3237   2.059   3.573   7.694 -0.2179  0.3575  0.5868
 2172CO2      C 3238   0.863   2.301   2.922 -0.1423 -0.2518 -0.4460
 2172CO2     O1 3239   0.786   2.378   2.888  0.0618  0.3822  0.4871
 2172CO2     O2 3240   0.941   2.225   2.959  0.0305  0.1635  0.0564
 2173CO2      C 3241   3.422   1.249   7.424 -0.1064 -0.7548 -0.4596
 2173CO2     O1 3242   3.536   1.239   7.440 -0.0397  0.2699 -0.2281
 2173CO2     O2 3243   3.308   1.254   7.411 -0.1231  0.5468  0.0132
 2174CO2      C 3244   0.864   0.467   4.630  0.0132  0.2219  0.1252
 2174CO2     O1 3245   0.933   0.391   4.580 -0.1563  0.1456  0.0060
 2174CO2     O2 3246   0.793   0.538   4.686 -0.6037 -0.2669 -0.0282
 2175CO2      C 3247   0.014   3.095   3.497  0.2505  0.1830 -0.7119
 2175CO2     O1 3248  -0.087   3.104   3.551  0.5238  0.8279 -0.2991
 2175CO2     O2 3249   0.116   3.084   3.446  0.3137 -0.5628 -0.4394
 2176CO2      C 3250   0.015   4.231   6.482  1.5691  0.5838  0.3838
 2176CO2     O1 3251   0.044   4.280   6.382  0.6448 -0.4123 -0.4025
 2176CO2     O2 3252  -0.007   4.179   6.581  0.1047  0.4620  0.0276
 2177CO2      C 3253   1.720   3.834   1.424 -0.2096 -0.4588  0.3249
 2177CO2     O1 3254   1.653   3.906   1.484 -0.2534  0.3462 -0.6681
 2177CO2     O2 3255   1.792   3.766   1.366  0.1392 -0.0480  0.2689
 2178CO2      C 3256   0.262   0.559   6.596 -0.1243  0.6675 -0.2900
 2178CO2     O1 3257   0.198   0.503   6.519  0.3349 -0.3098  0.0191
 2178CO2     O2 3258   0.322   0.610   6.680 -0.5257  0.4810  0.1141
 2179CO2      C 3259   4.004   0.982   5.792  0.1351 -0.5164 -0.7323
 2179CO2     O1 3260   4.090   0.958   5.865 -0.2433  0.2443 -0.0217
 2179CO2     O2 3261   3.911   1.001   5.727 -0.3963  0.1114  0.1847
 2180CO2      C 3262   2.485   2.282   6.541 -0.0254  0.4017 -0.0004
 2180CO2     O1 3263   2.533   2.178   6.551  0.3918  0.5995  0.0666
 2180CO2     O2 3264   2.439   2.386   6.522  0.0075  0.3185 -0.5372
 2181CO2      C 3265   3.687   0.403   2.522 -1.1641  0.3395 -0.7574
 2181CO2     O1 3266   3.781   0.468   2.523 -0.8745 -0.0771  0.3281
 2181CO2     O2 3267   3.592   0.338   2.529 -0.8547 -0.0310  0.1462
 2182CO2      C 3268   3.380   0.702   2.634  0.1612  0.1285  0.2212
 2182CO2     O1 3269   3.356   0.810   2.604 -0.2221 -0.0932 -0.2887
 2182CO2     O2 3270   3.401   0.592   2.658  0.2828  0.0272 -0.3393
 2183CO2      C 3271   1.878   4.061   3.960  0.0118  0.0365  0.0082
 2183CO2     O1 3272   1.822   4.045   4.059  0.0848  0.3982  0.1084
 2183CO2     O2 3273   1.941   4.078   3.865  0.3317 -0.2979  0.1561
 2184CO2      C 3274   1.746   0.628   7.699 -0.1302 -0.3117 -0.4879
 2184CO2     O1 3275   1.827   0.547   7.704  0.2696  0.0845 -0.5080
 2184CO2     O2 3276   1.659   0.703   7.705 -0.0655 -0.2589 -0.1990
 2185CO2      C 3277   3.167   2.014   6.968  0.1523 -0.5760 -0.2349
 2185CO2     O1 3278   3.124   1.912   6.999 -0.3429 -0.1537  0.5117
 2185CO2     O2 3279   3.204   2.119   6.941 -0.1137 -0.3315  0.3396
 2186CO2      C 3280   3.393   1.834   6.673 -0.1855  0.3951  0.5560
 2186CO2     O1 3281   3.314   1.799   6.749 -0.1416 -0.3207  0.2776
 2186CO2     O2 3282   3.470   1.863   6.593 -0.6916  0.0881 -0.0514
 2187CO2      C 3283   1.823   1.400   2.744  0.4519  0.1556  0.3142
 2187CO2     O1 3284   1.898   1.440   2.666 -0.2612  1.0371  0.0643
 2187CO2     O2 3285   1.742   1.368   2.819  0.6469 -0.8423  0.1139
 2188CO2      C 3286   3.448   3.896   3.408 -0.4090 -0.5188  0.0946
 2188CO2     O1 3287   3.503   3.847   3.321 -0.4457 -0.4144  0.0120
 2188CO2     O2 3288   3.391   3.948   3.494 -0.1107 -0.4644  0.2599
 2189CO2      C 3289   1.165   1.232   1.747  0.0212 -0.8129 -0.4472
 2189CO2     O1 3290   1.079   1.290   1.696 -0.0762 -0.2783  0.3197
 2189CO2     O2 3291   1.255   1.179   1.794  0.4118 -0.1039 -0.3706
 2190CO2      C 3292   3.545   1.912   7.443  0.1203 -0.0685  1.2009
 2190CO2     O1 3293   3.649   1.953   7.418  0.1023 -0.6539  0.0794
 2190CO2     O2 3294   3.439   1.871   7.460 -0.0245 -0.3651 -0.2817
 2191CO2      C 3295   1.460   2.927   6.595 -0.2753 -0.6109  0.0297
 2191CO2     O1 3296   1.384   2.962   6.673 -0.0794 -0.3100  0.0843
 2191CO2     O2 3297   1.536   2.889   6.518  0.0398  0.5348 -0.2293
 2192CO2      C 3298   0.094   2.604   2.182  0.0029 -0.5915  0.3004
 2192CO2     O1 3299   0.052   2.508   2.136 -0.3474 -0.1325 -0.3762
 2192CO2     O2 3300   0.138   2.699   2.229 -0.5664 -0.0126 -0.2973
 2193CO2      C 3301   2.464   2.281   6.060 -0.2725  0.2123 -0.1927
 2193CO2     O1 3302   2.550   2.349   6.094  0.0300 -0.1805 -0.1586
 2193CO2     O2 3303   2.374   2.220   6.023  0.1636 -0.1011 -0.7727
 2194CO2      C 3304   0.391   1.162   0.964  0.4327 -0.2380 -0.0284
 2194CO2     O1 3305   0.420   1.273   0.977  0.0184 -0.1683  0.3149
 2194CO2     O2 3306   0.359   1.054   0.945  0.5468 -0.1603 -0.7002
 2195CO2      C 3307   1.162   1.410   3.926 -0.1612 -0.4218  0.1906
 2195CO2     O1 3308   1.263   1.387   3.877 -0.0223  0.3313  0.1209
 2195CO2     O2 3309   1.060   1.430   3.976  0.0413  0.0101  0.4314
 2196CO2      C 3310   3.156   2.320   4.288  0.4022 -0.1950  0.7727
 2196CO2     O1 3311   3.183   2.228   4.226 -0.6842  0.0845 -0.1515
 2196CO2     O2 3312   3.126   2.412   4.351  0.8029  0.1408  0.4779
 2197CO2      C 3313   4.183   0.341   5.834 -0.5788  0.3399  0.8020
 2197CO2     O1 3314   4.101   0.263   5.858 -0.7634  0.2743 -0.0258
 2197CO2     O2 3315   4.258   0.421   5.803 -0.1744 -0.3416 -0.0071
 2198CO2      C 3316   3.431   0.712   3.250  0.7485  0.1831 -0.9308
 2198CO2     O1 3317   3.516   0.699   3.327  0.0010  0.1510 -0.0987
 2198CO2     O2 3318   3.347   0.725   3.173  0.0591  1.0825 -0.0567
 2199CO2      C 3319   0.366   3.233   5.519 -1.2313  0.2340 -0.5506
 2199CO2     O1 3320   0.313   3.207   5.618  0.1311  0.1412  0.1734
 2199CO2     O2 3321   0.426   3.258   5.424 -0.2773 -0.3701 -0.1287
 2200CO2      C 3322   1.846   3.967   1.856  0.3038 -0.7857 -0.1097
 2200CO2     O1 3323   1.874   4.015   1.957  0.0269  0.0371 -0.4165
 2200CO2     O2 3324   1.819   3.921   1.754 -0.4274  0.1734 -0.3605
 2201CO2      C 3325   3.753   3.997   4.619 -0.1869 -0.3995 -0.2115
 2201CO2     O1 3326   3.751   4.108   4.591 -0.0796 -0.2907  0.2068
 2201CO2     O2 3327   3.750   3.885   4.644  0.0145 -0.3316  0.1152
 2202CO2      C 3328   2.601   0.791   0.666 -0.1971 -0.1542  0.1830
 2202CO2     O1 3329   2.506   0.855   0.660 -0.0559  0.0336 -0.0747
 2202CO2     O2 3330   2.697   0.729   0.674 -0.4351 -0.4984  0.3744
 2203CO2      C 3331   4.295   1.876   5.818  0.2542 -0.0858 -0.3831
 2203CO2     O1 3332   4.363   1.790   5.785 -0.0814 -0.4651 -0.1065
 2203CO2     O2 3333   4.226   1.962   5.851  0.0240 -0.4841  0.1843
 2204CO2      C 3334   0.459   2.661   3.620  0.3215 -0.6846 -0.5134
 2204CO2     O1 3335   0.349   2.636   3.600 -0.0776  0.3009  0.3860
 2204CO2     O2 3336   0.569   2.684   3.647  0.0139  0.0655  0.1378
 2205CO2      C 3337   0.420   2.812   3.142 -0.0258  0.1395  0.5334
 2205CO2     O1 3338   0.516   2.788   3.200  0.0097  0.1347  0.4731
 2205CO2     O2 3339   0.322   2.836   3.087  0.1248 -0.1070  0.1579
 2206CO2      C 3340   1.650   2.059   1.795 -0.0635 -0.4677 -1.0240
 2206CO2     O1 3341   1.622   1.950   1.817  0.6251 -0.3976  0.2806
 2206CO2     O2 3342   1.678   2.168   1.774  0.2298 -0.3347  0.0277
 2207CO2      C 3343   1.090   3.249   4.445 -0.2291  0.0517  0.0183
 2207CO2     O1 3344   1.075   3.195   4.345 -0.5801 -0.1163  0.1620
 2207CO2     O2 3345   1.107   3.295   4.549  0.5667  0.1316 -0.1416
 2208CO2      C 3346   2.996   1.768   4.797  0.1015  0.0012  0.0290
 2208CO2     O1 3347   3.103   1.731   4.815  0.0990  0.1184  0.2934
 2208CO2     O2 3348   2.889   1.806   4.775  0.2502  0.1912 -0.3650
 2209CO2      C 3349   3.640   4.052   4.984 -0.0372 -0.2074  0.0068
 2209CO2     O1 3350   3.667   4.092   5.088 -0.1390  0.0779 -0.0754
 2209CO2     O2 3351   3.608   4.018   4.879  0.2587 -0.0651 -0.1280
 2210CO2      C 3352   1.958   2.358   7.667 -0.1479 -0.0447 -0.1651
 2210CO2     O1 3353   1.996   2.250   7.658 -0.2729 -0.1494  0.5249
 2210CO2     O2 3354   1.924   2.467   7.681 -0.2351 -0.0935  0.0031
 2211CO2      C 3355   3.169   2.342   1.202  0.1054  0.0382  0.5768
 2211CO2     O1 3356   3.087   2.275   1.247 -0.2318 -0.1826 -0.3373
 2211CO2     O2 3357   3.251   2.405   1.151 -0.4230  0.0030 -0.3336
 2212CO2      C 3358   0.204   3.071   2.423  0.4411 -0.6247  0.4046
 2212CO2     O1 3359   0.114   3.045   2.489  0.3374 -0.6770  0.2438
 2212CO2     O2 3360   0.294   3.098   2.356 -0.1945  0.7833  0.0852
 2213CO2      C 3361   2.944   4.118   6.194 -0.1573  0.6150  0.3359
 2213CO2     O1 3362   3.039   4.183   6.182  0.0034  0.2924 -0.1564
 2213CO2     O2 3363   2.848   4.057   6.211  0.2962  0.0261  0.8402
 2214CO2      C 3364   2.512   2.255   2.668  0.0895  0.0560  0.0986
 2214CO2     O1 3365   2.555   2.222   2.769 -0.2923  0.1073  0.2773
 2214CO2     O2 3366   2.472   2.289   2.566 -0.2627 -0.3154  0.1085
 2215CO2      C 3367   4.036   1.573   5.576  0.4788 -0.0904 -0.0652
 2215CO2     O1 3368   4.023   1.463   5.606  0.2485  0.0268  0.2771
 2215CO2     O2 3369   4.047   1.686   5.557  0.5203  0.0208  0.5766
 2216CO2      C 3370   3.545   1.723   4.431  0.2563 -0.0155 -0.3924
 2216CO2     O1 3371   3.564   1.656   4.522 -0.3659 -0.0177 -0.2588
 2216CO2     O2 3372   3.528   1.792   4.341  0.5050  0.2124 -0.2648
 2217CO2      C 3373   3.136   4.007   1.897  0.5494  0.6798 -0.1101
 2217CO2     O1 3374   3.151   3.941   1.805 -0.5611 -0.1027  0.2558
 2217CO2     O2 3375   3.114   4.068   1.992  0.1745  0.3096  0.0436
 2218CO2      C 3376   2.636   1.830   1.560  0.0220  0.1235 -0.6204
 2218CO2     O1 3377   2.536   1.775   1.546  0.1151 -0.2786  0.2069
 2218CO2     O2 3378   2.736   1.882   1.580  0.2291 -0.1084 -1.0395
 2219CO2      C 3379   4.039   2.318   6.135 -0.3050  0.0606  0.3418
 2219CO2     O1 3380   4.128   2.376   6.177 -0.2312  0.2767 -0.1119
 2219CO2     O2 3381   3.953   2.255   6.092 -0.3037  0.1497  0.2117
 2220CO2      C 3382   0.418   0.821   1.841  0.0400 -0.7010  0.4835
 2220CO2     O1 3383   0.321   0.843   1.900 -0.0341 -0.0577  0.1272
 2220CO2     O2 3384   0.515   0.801   1.784  0.4446  0.1270  0.8616
 2221CO2      C 3385   0.494   1.930   3.692  0.0235 -0.3089 -0.5291
 2221CO2     O1 3386   0.503   1.968   3.800  0.4828 -0.0453 -0.6561
 2221CO2     O2 3387   0.483   1.891   3.584  0.4831 -0.2899 -0.5878
 2222CO2      C 3388   1.084   0.620   2.942  0.0984  0.0311  0.3364
 2222CO2     O1 3389   1.111   0.704   2.867  0.1576 -0.0136  0.3076
 2222CO2     O2 3390   1.054   0.541   3.019  0.4194  0.1518  0.5882
 2223CO2      C 3391   0.956   2.702   6.975 -0.4576 -1.1508  0.1294
 2223CO2     O1 3392   0.928   2.778   7.056  0.2284 -0.5215 -0.2098
 2223CO2     O2 3393   0.983   2.630   6.889  0.6755 -0.2567 -0.2881
 2224CO2      C 3394   4.236   2.793   0.665 -0.1793 -0.0140  0.1983
 2224CO2     O1 3395   4.174   2.890   0.663 -0.0550  0.0701  0.3661
 2224CO2     O2 3396   4.298   2.695   0.668 -0.2221 -0.0593 -0.3728
 2225CO2      C 3397   0.319   4.309   6.133  0.7311  0.4718 -0.7221
 2225CO2     O1 3398   0.243   4.267   6.058  0.3001  0.2203 -0.1575
 2225CO2     O2 3399   0.386   4.364   6.209  0.1935  0.1121  0.0293
 2226CO2      C 3400   0.608   0.074   4.931  0.1491 -0.4378 -0.1155
 2226CO2     O1 3401   0.586   0.159   4.858  0.1298 -0.4372 -0.1086
 2226CO2     O2 3402   0.636  -0.017   4.996  0.2203 -0.3619 -0.0405
 2227CO2      C 3403   1.661   2.171   5.328  0.1904 -0.1377 -0.1187
 2227CO2     O1 3404   1.693   2.236   5.417  0.0664 -0.5336  0.2149
 2227CO2     O2 3405   1.632   2.110   5.235  0.6426  0.1856 -0.4737
 2228CO2      C 3406   1.356   4.120   1.365 -0.8138  0.0201 -0.2717
 2228CO2     O1 3407   1.363   4.006   1.379 -0.5454  0.0657 -0.0198
 2228CO2     O2 3408   1.350   4.234   1.349  0.4083  0.0568 -0.5820
 2229CO2      C 3409   0.409   1.401   0.652 -0.4448 -0.0032 -0.2581
 2229CO2     O1 3410   0.378   1.291   0.646  0.5577 -0.3388  0.4749
 2229CO2     O2 3411   0.442   1.510   0.666 -0.9052  0.0192  0.6863
 2230CO2      C 3412   1.579   3.200   6.880 -0.3859  0.4866  0.0208
 2230CO2     O1 3413   1.508   3.113   6.906 -0.0660  0.1837 -0.1163
 2230CO2     O2 3414   1.651   3.287   6.861  0.3935 -0.2664 -0.5199
 2231CO2      C 3415   1.107   1.960   4.910  0.2022  0.0194 -0.4928
 2231CO2     O1 3416   0.993   1.958   4.904  0.1379  0.2959  0.5421
 2231CO2     O2 3417   1.222   1.958   4.917  0.1829  0.3829 -0.0421
 2232CO2      C 3418   3.315   2.010   3.735 -0.2072 -0.1347 -0.0951
 2232CO2     O1 3419   3.408   1.949   3.762 -0.0201  0.1568 -0.0707
 2232CO2     O2 3420   3.219   2.070   3.712 -0.5336 -0.5735  0.1072
 2233CO2      C 3421   3.844   0.571   6.425  0.2602  0.1864  0.6124
 2233CO2     O1 3422   3.875   0.466   6.392 -0.1549  0.0261  0.7296
 2233CO2     O2 3423   3.813   0.677   6.457  0.0985  0.3145  0.0437
 2234CO2      C 3424   1.413   0.562   7.673  0.0478  0.1552 -0.4988
 2234CO2     O1 3425   1.333   0.643   7.688 -0.1015 -0.0597 -0.1170
 2234CO2     O2 3426   1.495   0.482   7.663  0.3932  0.3981  0.3133
 2235CO2      C 3427   0.529   3.118   6.105 -0.2279 -1.1418  0.4562
 2235CO2     O1 3428   0.497   3.097   6.214  0.2146 -0.3025  0.7537
 2235CO2     O2 3429   0.566   3.128   5.997 -0.4765 -0.2463  0.4525
 2236CO2      C 3430   2.668   1.614   3.955  0.7827 -0.1213  0.2960
 2236CO2     O1 3431   2.674   1.665   4.057  0.2700 -0.0468  0.2962
 2236CO2     O2 3432   2.663   1.560   3.854 -0.3564  0.3950  0.0551
 2237CO2      C 3433   0.460   2.426   3.262 -0.3918  0.7330 -0.2108
 2237CO2     O1 3434   0.368   2.370   3.301  0.2095  0.3871  0.7538
 2237CO2     O2 3435   0.553   2.483   3.224 -0.0480  0.2382 -0.1135
 2238CO2      C 3436   0.910   4.212   2.333  0.0142  0.3705  0.3879
 2238CO2     O1 3437   0.830   4.225   2.251  0.1606  0.1660  0.2128
 2238CO2     O2 3438   0.990   4.197   2.414  0.0435 -0.4805  0.2062
 2239SOL     OW 3439   0.178   1.247   1.120  0.2195  0.3362 -0.1994
 2239SOL    HW1 3440   0.130   1.265   1.201  1.6018  0.2874  0.6441
 2239SOL    HW2 3441   0.135   1.169   1.085 -1.3219  1.1793 -0.2880
 2240SOL     OW 3442   4.262   0.380   0.901 -0.2172 -0.1882  0.2649
 2240SOL    HW1 3443   4.231   0.471   0.911 -1.4482 -0.5947  0.3753
 2240SOL    HW2 3444   4.302   0.378   0.814 -1.8467  0.0409 -0.5356
 2241SOL     OW 3445   3.511   2.074   1.613 -0.5767  0.3255 -0.0091
 2241SOL    HW1 3446   3.480   1.993   1.573 -0.4865  0.5325 -0.5047
 2241SOL    HW2 3447   3.593   2.093   1.569 -0.6145  0.7051  0.0817
 2242SOL     OW 3448   3.258   0.860   1.937 -0.3760 -0.1840  0.1522
 2242SOL    HW1 3449   3.289   0.945   1.906 -1.7034  0.3723  0.2699
 2242SOL    HW2 3450   3.191   0.881   2.003  1.7755 -1.3059  2.9336
 2243SOL     OW 3451   0.909   1.445   1.257 -0.2605 -0.0367 -0.1991
 2243SOL    HW1 3452   0.823   1.435   1.216 -1.1005  0.5994  1.3305
 2243SOL    HW2 3453   0.896   1.416   1.348  1.5721 -1.5448 -0.3643
 2244SOL     OW 3454   2.062   2.948   0.923 -0.3525  0.4757  0.9660
 2244SOL    HW1 3455   2.112   3.001   0.861 -0.0095  1.0201  1.6978
 2244SOL    HW2 3456   2.124   2.881   0.952  0.2064  1.5467  2.3782
 2245SOL     OW 3457   4.219   1.576   1.310  0.1894 -0.5421  0.3532
 2245SOL    HW1 3458   4.139   1.533   1.279 -0.6829  0.8928  0.5311
 2245SOL    HW2 3459   4.194   1.614   1.394  1.4517 -1.1765  1.0490
 2246SOL     OW 3460   1.612   0.757   1.327 -0.6763 -0.1394 -0.3817
 2246SOL    HW1 3461   1.532   0.712   1.300 -0.2172 -2.6450  1.9526
 2246SOL    HW2 3462   1.680   0.689   1.320  1.2182  1.7585 -1.7700
 2247SOL     OW 3463   1.843   2.517   1.805  0.3210  0.4224  0.0488
 2247SOL    HW1 3464   1.865   2.562   1.886 -1.1012  0.5354  0.3941
 2247SOL    HW2 3465   1.867   2.426   1.820  2.2838  0.8455 -0.2936
 2248SOL     OW 3466   0.054   1.909   0.761 -0.0691  0.2550 -0.0377
 2248SOL    HW1 3467   0.080   1.884   0.849 -2.5377 -0.1116  0.6814
 2248SOL    HW2 3468   0.060   1.828   0.710 -0.3657  0.0405  0.2635
 2249SOL     OW 3469   4.170   1.432   0.666 -0.4634 -0.2944  0.1195
 2249SOL    HW1 3470   4.075   1.439   0.678 -0.5601  0.0900 -0.8337
 2249SOL    HW2 3471   4.182   1.349   0.620 -0.2621 -0.7273  0.9313
 2250SOL     OW 3472   0.755   1.779   1.242  0.0659 -0.0175  0.0440
 2250SOL    HW1 3473   0.821   1.763   1.310  0.4227  0.9224 -0.0641
 2250SOL    HW2 3474   0.678   1.731   1.271 -0.4734  1.9628  2.1979
 2251SOL     OW 3475   0.162   0.693   0.633 -0.0102  0.2691 -0.0765
 2251SOL    HW1 3476   0.155   0.769   0.574 -1.2093  0.6733  0.5604
 2251SOL    HW2 3477   0.215   0.725   0.706  1.5268 -0.2492 -0.9043
 2252SOL     OW 3478   1.086   1.328   0.689 -0.1447 -0.3318  0.9547
 2252SOL    HW1 3479   1.001   1.315   0.731 -1.1136 -1.3996 -1.1451
 2252SOL    HW2 3480   1.095   1.423   0.683 -1.2189 -0.2056  1.1868
 2253SOL     OW 3481   0.397   4.132   2.466  0.5257 -0.1635 -0.2044
 2253SOL    HW1 3482   0.375   4.073   2.538 -1.8237 -0.9781 -1.4884
 2253SOL    HW2 3483   0.364   4.217   2.494 -0.9983 -0.6157 -0.5510
 2254SOL     OW 3484   0.054   1.237   1.364  0.9651 -0.0401  0.2600
 2254SOL    HW1 3485   0.015   1.155   1.396  0.1423  0.4246  0.4786
 2254SOL    HW2 3486   0.028   1.303   1.429 -1.8134  1.1948 -1.8906
 2255SOL     OW 3487   2.034   1.148   3.242 -0.0865  0.3367  0.0916
 2255SOL    HW1 3488   2.085   1.080   3.197  2.0383  2.4876 -0.9804
 2255SOL    HW2 3489   2.046   1.129   3.335 -0.5804 -1.4182 -0.1534
 2256SOL     OW 3490   1.360   2.497   1.819 -0.7800  0.0511 -0.8841
 2256SOL    HW1 3491   1.383   2.580   1.777  3.3698 -0.5169 -0.1820
 2256SOL    HW2 3492   1.347   2.437   1.746  2.7745 -0.0744 -1.5997
 2257SOL     OW 3493   0.436   3.753   1.025 -0.1072  0.0540 -0.2898
 2257SOL    HW1 3494   0.504   3.805   0.983  0.6985 -0.8915 -0.1934
 2257SOL    HW2 3495   0.411   3.804   1.102 -0.3282  0.9447 -0.9395
 2258SOL     OW 3496   1.889   1.255   2.152 -0.1333  0.3991  0.2214
 2258SOL    HW1 3497   1.840   1.275   2.232  0.5114  0.3393  0.6353
 2258SOL    HW2 3498   1.822   1.227   2.090 -0.6208  0.2699  0.7946
 2259SOL     OW 3499   0.072   0.834   1.065  0.3690  0.0840  0.3414
 2259SOL    HW1 3500  -0.005   0.810   1.116 -0.1280  2.6543  0.9480
 2259SOL    HW2 3501   0.093   0.756   1.014 -1.7306 -1.1621  1.2764
 2260SOL     OW 3502   4.075   1.565   1.764 -0.3620 -0.8219 -0.6301
 2260SOL    HW1 3503   4.023   1.509   1.707 -0.6658 -0.2124 -0.9670
 2260SOL    HW2 3504   4.117   1.627   1.705  0.9077 -1.4103 -0.3828
 2261SOL     OW 3505   0.580   3.193   1.661 -0.1288  0.0669 -0.2096
 2261SOL    HW1 3506   0.524   3.183   1.739 -2.5248  0.4445 -1.7651
 2261SOL    HW2 3507   0.597   3.103   1.632 -0.0676 -0.0464  0.1658
 2262SOL     OW 3508   4.138   2.895   1.609 -0.1513 -0.5394  0.2700
 2262SOL    HW1 3509   4.222   2.869   1.571  0.8848  1.4636  1.0466
 2262SOL    HW2 3510   4.150   2.883   1.703  0.3458  2.4230  0.6575
 2263SOL     OW 3511   0.695   1.413   1.078  0.0546  0.1131  0.0136
 2263SOL    HW1 3512   0.618   1.356   1.074  2.2637 -3.3680  1.8261
 2263SOL    HW2 3513   0.733   1.407   0.990 -1.9606  2.4983 -1.1516
 2264SOL     OW 3514   1.512   3.940   1.920  0.2068 -0.0618  0.6544
 2264SOL    HW1 3515   1.475   3.921   2.006  1.1419 -0.4982  0.9768
 2264SOL    HW2 3516   1.533   4.033   1.923 -1.0418  0.2407  0.3885
 2265SOL     OW 3517   1.311   0.300   1.919  0.4379  0.0773  0.1647
 2265SOL    HW1 3518   1.319   0.350   1.838 -0.8173 -0.9900 -0.6511
 2265SOL    HW2 3519   1.402   0.279   1.943  1.0317  2.7515  0.6084
 2266SOL     OW 3520   0.172   2.168   0.641  0.1247  0.1106 -0.1736
 2266SOL    HW1 3521   0.251   2.222   0.639  0.5283 -0.4973 -0.8469
 2266SOL    HW2 3522   0.200   2.084   0.676  0.5246 -1.2150 -3.3273
 2267SOL     OW 3523   2.823   0.656   1.374  0.4342 -0.6867  0.6903
 2267SOL    HW1 3524   2.794   0.566   1.356  0.7053 -0.8429  1.0149
 2267SOL    HW2 3525   2.743   0.708   1.370  0.4444 -0.7356 -0.7392
 2268SOL     OW 3526   1.774   0.923   0.680 -0.2544 -0.9123 -0.1917
 2268SOL    HW1 3527   1.765   0.862   0.753 -0.8174 -1.7235 -0.9112
 2268SOL    HW2 3528   1.695   0.977   0.685 -0.2763 -0.9455 -0.1731
 2269SOL     OW 3529   0.181   2.207   1.267  0.4887  0.2244 -0.0348
 2269SOL    HW1 3530   0.191   2.288   1.216  0.2643  1.2121  1.4241
 2269SOL    HW2 3531   0.252   2.151   1.237  1.5395  1.5192 -0.0773
 2270SOL     OW 3532   0.178   3.877   1.873 -0.3357 -0.6494 -0.4503
 2270SOL    HW1 3533   0.122   3.860   1.797  0.6586 -1.7739 -0.9585
 2270SOL    HW2 3534   0.261   3.835   1.851 -0.2763 -1.6902  1.6083
 2271SOL     OW 3535   4.112   0.793   1.494 -0.0488 -0.8670 -0.7880
 2271SOL    HW1 3536   4.101   0.698   1.486  0.1528 -0.9181 -0.4868
 2271SOL    HW2 3537   4.023   0.827   1.495 -0.1758 -1.1737  0.4288
 2272SOL     OW 3538   0.836   0.789   1.748  0.4765  0.1945 -0.0846
 2272SOL    HW1 3539   0.883   0.709   1.726  0.8710  0.7342 -1.2894
 2272SOL    HW2 3540   0.745   0.762   1.757  0.4442 -0.2484 -1.4780
 2273SOL     OW 3541   0.441   3.150   1.421 -0.0511 -0.3382  0.2690
 2273SOL    HW1 3542   0.456   3.195   1.504 -3.0145  0.0377  0.7106
 2273SOL    HW2 3543   0.388   3.211   1.369  0.2767 -1.2604 -1.2355
 2274SOL     OW 3544   0.358   2.035   1.172  0.4014 -0.4938  0.4691
 2274SOL    HW1 3545   0.451   2.025   1.155  0.5122  0.2018  0.6088
 2274SOL    HW2 3546   0.320   1.951   1.150  0.4554  0.3321 -3.4341
 2275SOL     OW 3547   0.834   0.083   1.189  0.0070  0.4906 -0.2867
 2275SOL    HW1 3548   0.924   0.098   1.221 -0.0570  0.3383 -0.0295
 2275SOL    HW2 3549   0.780   0.142   1.241  0.1160  1.6139 -1.4111
 2276SOL     OW 3550   1.382   0.567   1.176  0.3448 -0.2478  0.1829
 2276SOL    HW1 3551   1.324   0.501   1.214  1.7350 -0.9062  1.2307
 2276SOL    HW2 3552   1.334   0.650   1.186 -0.6187 -0.8356  0.5433
 2277SOL     OW 3553   1.077   1.612   0.659 -0.0430 -0.0206  0.6620
 2277SOL    HW1 3554   1.096   1.628   0.567 -0.3116 -3.6139 -0.1802
 2277SOL    HW2 3555   0.996   1.659   0.676 -0.8003 -0.4982 -1.4028
 2278SOL     OW 3556   4.116   1.159   0.695  0.6560  0.0822 -0.4282
 2278SOL    HW1 3557   4.170   1.118   0.763  0.8236 -1.5682 -1.5091
 2278SOL    HW2 3558   4.028   1.123   0.710  0.7891 -0.6633 -1.3397
 2279SOL     OW 3559   0.997   2.076   0.683 -0.0464  0.4933  0.0155
 2279SOL    HW1 3560   1.029   2.127   0.757  0.4014 -1.2381  1.0829
 2279SOL    HW2 3561   0.909   2.109   0.667 -0.0530  1.0751  1.1595
 2280SOL     OW 3562   0.034   1.608   0.665  0.2273 -0.4116  0.6533
 2280SOL    HW1 3563   0.095   1.564   0.725  1.5079 -1.3167 -1.2088
 2280SOL    HW2 3564  -0.039   1.545   0.655  0.7623 -0.9564  0.0840
 2281SOL     OW 3565   3.515   2.073   1.240 -0.1958 -0.6457 -0.5231
 2281SOL    HW1 3566   3.440   2.037   1.288  1.0693 -1.8779  0.6128
 2281SOL    HW2 3567   3.523   2.163   1.272  0.2464 -1.2567  1.1809
 2282SOL     OW 3568   1.523   4.099   0.692  0.2183 -0.5468 -0.1556
 2282SOL    HW1 3569   1.446   4.144   0.658 -0.5643  0.0605  2.1838
 2282SOL    HW2 3570   1.588   4.168   0.706  1.0462 -0.9853 -1.6417
 2283SOL     OW 3571   0.544   0.464   2.494 -0.7942  0.2821 -0.1296
 2283SOL    HW1 3572   0.528   0.442   2.586 -0.7846  3.1960  0.6595
 2283SOL    HW2 3573   0.638   0.480   2.489 -0.6267 -0.8058 -0.9274
 2284SOL     OW 3574   2.842   0.959   1.286 -0.0860 -0.2254  0.2014
 2284SOL    HW1 3575   2.937   0.973   1.280 -0.1304 -0.3627 -1.1539
 2284SOL    HW2 3576   2.829   0.870   1.252 -0.5021 -1.0764  2.3905
 2285SOL     OW 3577   2.124   1.938   1.382 -0.3298 -0.2320 -0.0399
 2285SOL    HW1 3578   2.164   1.899   1.304  0.0966 -0.5456  0.3278
 2285SOL    HW2 3579   2.067   1.869   1.416 -0.6682 -0.0249 -0.1845
 2286SOL     OW 3580   1.463   1.669   2.937 -0.4491  0.3902  0.8629
 2286SOL    HW1 3581   1.469   1.687   3.031  0.6553  1.6011  0.5913
 2286SOL    HW2 3582   1.382   1.712   2.909 -0.7329  0.1053  1.2320
 2287SOL     OW 3583   1.177   0.609   1.509 -0.1731  0.0643  0.0601
 2287SOL    HW1 3584   1.164   0.636   1.600 -1.3228 -1.3315  0.3346
 2287SOL    HW2 3585   1.218   0.523   1.515 -0.0961  0.0391 -0.7510
 2288SOL     OW 3586   0.093   1.900   1.542  0.9053 -0.2520  0.3748
 2288SOL    HW1 3587   0.181   1.872   1.518  1.6264  1.2020  1.2149
 2288SOL    HW2 3588   0.106   1.966   1.610 -0.8445 -0.1321  0.6382
 2289SOL     OW 3589   3.681   4.204   2.299 -0.4391 -0.4713 -0.1655
 2289SOL    HW1 3590   3.714   4.140   2.236 -0.8222  0.5079 -1.3916
 2289SOL    HW2 3591   3.757   4.258   2.320 -0.2441 -0.9721  0.4542
 2290SOL     OW 3592   4.208   2.048   1.431  0.1535 -0.1521  0.1576
 2290SOL    HW1 3593   4.270   1.986   1.469  0.0290 -1.2989 -1.4055
 2290SOL    HW2 3594   4.243   2.067   1.344 -1.9583 -1.3411 -1.0387
 2291SOL     OW 3595   0.328   0.125   3.047  0.0493 -0.6127  0.2814
 2291SOL    HW1 3596   0.236   0.137   3.026  0.0257 -0.1302  0.6405
 2291SOL    HW2 3597   0.338   0.162   3.135 -0.0238 -3.1919  1.4646
 2292SOL     OW 3598   0.337   1.754   1.165  0.2278  0.3473  0.1194
 2292SOL    HW1 3599   0.369   1.665   1.180  1.2715  0.9400  1.7088
 2292SOL    HW2 3600   0.284   1.747   1.086  2.2761 -1.2028 -1.2440
 2293SOL     OW 3601   0.364   0.475   1.814  0.3006  0.5872 -0.4755
 2293SOL    HW1 3602   0.336   0.554   1.768 -2.7943 -0.3469 -0.4396
 2293SOL    HW2 3603   0.368   0.501   1.906  1.4630  1.1962 -0.6810
 2294SOL     OW 3604   3.469   0.358   0.668 -0.5250 -0.3833 -0.5380
 2294SOL    HW1 3605   3.482   0.282   0.611  1.0971 -0.9863  0.5934
 2294SOL    HW2 3606   3.556   0.394   0.681 -1.1723  1.2096 -0.3842
 2295SOL     OW 3607   1.054   0.091   2.697  0.1459  0.0991  0.6145
 2295SOL    HW1 3608   1.073   0.139   2.777  0.1825 -1.2047  1.4245
 2295SOL    HW2 3609   0.961   0.070   2.703  0.6180 -2.0171  1.5140
 2296SOL     OW 3610   0.182   4.187   2.262 -0.1495  0.7710  0.9098
 2296SOL    HW1 3611   0.099   4.181   2.311 -1.1782  0.2488 -0.7991
 2296SOL    HW2 3612   0.222   4.101   2.272 -0.5363  0.5454  0.5497
 2297SOL     OW 3613   3.366   3.797   1.055  0.2559  0.6687  0.2215
 2297SOL    HW1 3614   3.399   3.847   0.980  1.8088  1.8440  1.6127
 2297SOL    HW2 3615   3.275   3.826   1.065  0.2367  1.0020 -0.7648
 2298SOL     OW 3616   3.502   3.184   1.941 -0.2809 -0.0888 -0.1672
 2298SOL    HW1 3617   3.487   3.095   1.909  0.6902 -0.3518  0.0568
 2298SOL    HW2 3618   3.540   3.172   2.028  1.1964  0.4852 -0.7027
 2299SOL     OW 3619   1.471   2.338   1.999 -0.3546  0.5401 -0.3126
 2299SOL    HW1 3620   1.439   2.383   1.920  1.7831  0.7103 -1.1673
 2299SOL    HW2 3621   1.473   2.406   2.066  0.2981  1.0835 -0.8624
 2300SOL     OW 3622   2.497   1.318   1.010  0.2893  0.1634  0.4360
 2300SOL    HW1 3623   2.541   1.270   1.080 -0.2372 -1.8798 -0.5308
 2300SOL    HW2 3624   2.569   1.352   0.956  0.6860  0.7235  1.2986
 2301SOL     OW 3625   0.538   4.308   0.666  0.2216 -0.4229  0.1592
 2301SOL    HW1 3626   0.462   4.330   0.612  0.3645 -0.6105 -0.1181
 2301SOL    HW2 3627   0.542   4.213   0.665 -0.5214 -0.4902  1.5404
 2302SOL     OW 3628   1.796   1.333   0.876 -0.1014  0.1308  0.2482
 2302SOL    HW1 3629   1.781   1.402   0.939  0.5301  1.7789 -1.3205
 2302SOL    HW2 3630   1.732   1.350   0.806 -0.5228 -1.4056  0.2140
 2303SOL     OW 3631   1.609   3.660   1.912 -0.0344  0.3005 -0.3007
 2303SOL    HW1 3632   1.555   3.734   1.885 -0.5513 -0.3855 -1.2423
 2303SOL    HW2 3633   1.547   3.588   1.925  0.6483 -0.6425 -1.8951
 2304SOL     OW 3634   2.969   4.239   1.714  0.0460 -0.0144 -0.3580
 2304SOL    HW1 3635   2.907   4.171   1.742  0.5545 -0.4617 -0.3089
 2304SOL    HW2 3636   2.917   4.320   1.714 -0.5081 -0.3629 -0.2029
 2305SOL     OW 3637   0.875   0.937   1.508  0.4366 -0.0594 -0.8790
 2305SOL    HW1 3638   0.881   0.886   1.589  1.1232 -0.0708 -0.9320
 2305SOL    HW2 3639   0.909   0.879   1.440 -1.8947 -0.7562 -1.5204
 2306SOL     OW 3640   0.309   2.144   1.915 -0.0125  0.2448 -0.9082
 2306SOL    HW1 3641   0.307   2.061   1.867 -2.0857 -0.0432 -0.4498
 2306SOL    HW2 3642   0.339   2.208   1.851 -0.7963 -0.4610 -2.0297
 2307SOL     OW 3643   0.959   2.428   1.783 -0.1006 -0.1095 -0.1413
 2307SOL    HW1 3644   0.988   2.342   1.753 -0.8777 -0.1433 -0.8247
 2307SOL    HW2 3645   0.874   2.413   1.824 -1.8200  0.7055 -3.0895
 2308SOL     OW 3646   4.285   1.419   1.594 -0.1798  0.1510  0.5827
 2308SOL    HW1 3647   4.369   1.455   1.567 -0.1421 -1.5223 -1.8593
 2308SOL    HW2 3648   4.223   1.490   1.579  0.0251 -0.2831 -3.1978
 2309SOL     OW 3649   0.213   3.436   0.872  0.1679  0.0504  0.2510
 2309SOL    HW1 3650   0.289   3.467   0.923 -1.1817  2.0477  1.1847
 2309SOL    HW2 3651   0.139   3.445   0.933 -1.2293  0.7824 -1.4732
 2310SOL     OW 3652   0.542   3.545   1.290 -0.3900  0.6386 -0.0542
 2310SOL    HW1 3653   0.608   3.585   1.234 -0.8011  0.3341 -0.7698
 2310SOL    HW2 3654   0.557   3.583   1.376 -0.2616  1.7244 -0.5421
 2311SOL     OW 3655   4.107   1.740   0.684 -0.3925  0.4021 -0.5091
 2311SOL    HW1 3656   4.183   1.745   0.626 -1.5385  0.4836 -2.0522
 2311SOL    HW2 3657   4.095   1.647   0.700  0.9953  0.4517  1.1206
 2312SOL     OW 3658   0.614   2.013   1.066  0.1949  0.2910  0.0343
 2312SOL    HW1 3659   0.681   1.983   1.128 -0.2289  0.0366  0.3731
 2312SOL    HW2 3660   0.643   1.979   0.981  0.1218 -0.4281  0.2937
 2313SOL     OW 3661   3.174   1.338   1.654  0.5062 -0.0300  0.0307
 2313SOL    HW1 3662   3.162   1.359   1.747 -0.4669  1.4070 -0.3823
 2313SOL    HW2 3663   3.237   1.403   1.623  0.7324 -0.4247 -0.3395
 2314SOL     OW 3664   3.578   0.816   1.629 -0.4373 -0.1828  0.5062
 2314SOL    HW1 3665   3.576   0.795   1.722 -2.4092  0.7618  0.7112
 2314SOL    HW2 3666   3.555   0.733   1.586  0.9536 -0.7491  0.7943
 2315SOL     OW 3667   1.223   0.037   1.868  0.0207 -0.5405 -0.6808
 2315SOL    HW1 3668   1.235   0.117   1.920  1.1824 -1.3667  0.4076
 2315SOL    HW2 3669   1.184  -0.025   1.930  2.3287 -1.8485 -0.4464
 2316SOL     OW 3670   3.330   0.315   2.766 -0.3134 -0.2778  0.4132
 2316SOL    HW1 3671   3.287   0.379   2.709  2.2255  1.2809  0.1181
 2316SOL    HW2 3672   3.333   0.235   2.713 -0.4612  0.3511 -0.5862
 2317SOL     OW 3673   3.915   1.574   2.023 -0.5279  0.2797  0.2418
 2317SOL    HW1 3674   3.889   1.663   1.999  0.4282  0.5499  0.1696
 2317SOL    HW2 3675   3.975   1.547   1.953  1.0766  0.4853  1.4730
 2318SOL     OW 3676   1.015   4.199   1.515  0.0538  0.2916  0.3657
 2318SOL    HW1 3677   1.020   4.213   1.421  0.7154 -0.1391  0.3220
 2318SOL    HW2 3678   0.922   4.185   1.533 -0.1597  1.0769 -0.1102
 2319SOL     OW 3679   0.361   1.494   1.589 -0.4121 -0.4416  0.1551
 2319SOL    HW1 3680   0.336   1.481   1.680  0.7540 -4.8589  0.0469
 2319SOL    HW2 3681   0.277   1.500   1.542 -1.1357 -2.3952  1.1059
 2320SOL     OW 3682   1.211   2.225   1.407  0.4804 -0.5504  0.3809
 2320SOL    HW1 3683   1.235   2.314   1.378 -0.3630 -0.6913 -0.8706
 2320SOL    HW2 3684   1.119   2.217   1.383  0.5287 -1.7466  0.5351
 2321SOL     OW 3685   3.280   0.610   0.952  0.3206 -0.4419 -0.0164
 2321SOL    HW1 3686   3.269   0.580   0.862  0.0284  0.0373 -0.1404
 2321SOL    HW2 3687   3.314   0.533   0.999 -0.7051 -1.0619 -0.2605
 2322SOL     OW 3688   0.382   1.389   1.231 -0.7795  0.4143 -0.0759
 2322SOL    HW1 3689   0.323   1.328   1.186  1.0906 -1.2710 -0.3912
 2322SOL    HW2 3690   0.412   1.340   1.307  0.0471  1.3124  0.1868
 2323SOL     OW 3691   1.472   1.063   2.128  0.3744  0.1645  0.0944
 2323SOL    HW1 3692   1.534   1.135   2.136  0.2700  0.0244  5.3521
 2323SOL    HW2 3693   1.390   1.104   2.099  1.1567  1.5402 -0.2343
 2324SOL     OW 3694   1.601   0.241   1.612 -0.0048 -0.2957 -0.6021
 2324SOL    HW1 3695   1.688   0.280   1.605 -0.1061  0.2230  0.8225
 2324SOL    HW2 3696   1.578   0.218   1.522  2.3723 -2.1999 -0.8375
 2325SOL     OW 3697   1.407   0.559   0.697  0.5653 -0.4345  0.7850
 2325SOL    HW1 3698   1.413   0.556   0.793 -1.0490 -0.7670  0.9035
 2325SOL    HW2 3699   1.423   0.651   0.675  1.6840 -0.4826  1.2820
 2326SOL     OW 3700   0.211   4.311   0.668  0.2582  0.3918  0.3186
 2326SOL    HW1 3701   0.173   4.396   0.648  0.0478 -0.4473 -3.5852
 2326SOL    HW2 3702   0.138   4.249   0.658  0.2041 -0.3445  3.8614
 2327SOL     OW 3703   0.869   0.237   2.182 -0.4868  0.1925  0.5997
 2327SOL    HW1 3704   0.937   0.172   2.201  0.8361  1.1808 -0.5471
 2327SOL    HW2 3705   0.811   0.234   2.258  2.1166  0.9893  2.7802
 2328SOL     OW 3706   4.217   1.516   2.871 -0.2001 -0.1502 -0.0303
 2328SOL    HW1 3707   4.236   1.606   2.898 -1.1475  0.2296 -0.5879
 2328SOL    HW2 3708   4.138   1.523   2.817 -0.1030 -1.2785 -0.3450
 2329SOL     OW 3709   0.876   1.431   0.835  0.2384 -0.4154 -0.6241
 2329SOL    HW1 3710   0.837   1.475   0.760 -1.9098  0.2545  0.7993
 2329SOL    HW2 3711   0.916   1.501   0.886  1.3057 -0.8155 -0.8764
 2330SOL     OW 3712   1.503   3.542   1.551 -0.1886 -0.2640 -0.2600
 2330SOL    HW1 3713   1.420   3.590   1.547 -0.9650 -1.5536 -0.1409
 2330SOL    HW2 3714   1.493   3.472   1.487  1.4253  0.4426 -1.3564
 2331SOL     OW 3715   1.611   0.398   0.664 -0.0369 -0.1684 -0.3522
 2331SOL    HW1 3716   1.561   0.327   0.705 -0.6584  1.4386  1.8919
 2331SOL    HW2 3717   1.546   0.465   0.644  0.6441  0.1264 -1.6833
 2332SOL     OW 3718   0.352   1.831   1.501  0.2915  0.8135  0.6153
 2332SOL    HW1 3719   0.440   1.843   1.535  0.6466 -1.7142  0.7859
 2332SOL    HW2 3720   0.365   1.796   1.413 -0.5663  1.7038  0.1220
 2333SOL     OW 3721   2.386   1.364   1.519 -0.2113  0.2158 -0.3699
 2333SOL    HW1 3722   2.305   1.319   1.497  1.3420 -2.6556 -0.7844
 2333SOL    HW2 3723   2.408   1.415   1.441 -1.2962  0.5680 -0.4580
 2334SOL     OW 3724   0.082   3.461   1.124  0.1526  0.3745 -0.4253
 2334SOL    HW1 3725   0.148   3.508   1.175 -0.9316  0.8129  0.6174
 2334SOL    HW2 3726   0.076   3.375   1.166 -1.3598  1.0288  0.8063
 2335SOL     OW 3727   0.714   1.593   0.677  0.2106  0.0091 -0.2734
 2335SOL    HW1 3728   0.772   1.664   0.648 -0.7554  0.6398 -0.7303
 2335SOL    HW2 3729   0.627   1.633   0.677 -0.4948 -1.4322 -1.4956
 2336SOL     OW 3730   2.670   3.408   3.069 -0.1165 -0.7211 -0.3801
 2336SOL    HW1 3731   2.734   3.408   2.998 -0.8074 -0.6007 -1.0059
 2336SOL    HW2 3732   2.633   3.320   3.068 -0.6607 -0.4899 -0.6524
 2337SOL     OW 3733   2.591   1.196   2.610  0.1046  0.1622  0.6438
 2337SOL    HW1 3734   2.616   1.275   2.561 -1.2380 -0.9361 -1.9822
 2337SOL    HW2 3735   2.673   1.163   2.646  0.7630  2.4413  1.3800
 2338SOL     OW 3736   1.817   2.891   1.070 -0.5157 -0.2166 -0.3055
 2338SOL    HW1 3737   1.870   2.933   1.002 -0.7451 -0.1947 -0.4720
 2338SOL    HW2 3738   1.879   2.834   1.116 -0.5843 -1.0614 -1.2277
 2339SOL     OW 3739   0.588   0.829   2.127 -0.5730 -0.0526 -0.0778
 2339SOL    HW1 3740   0.544   0.911   2.102 -0.9901 -0.7132 -1.6348
 2339SOL    HW2 3741   0.681   0.850   2.124 -0.7017  0.8064  1.2189
 2340SOL     OW 3742   3.650   0.582   0.965 -0.8550  0.1777 -0.4904
 2340SOL    HW1 3743   3.564   0.565   0.926 -0.7303  1.9222 -1.6681
 2340SOL    HW2 3744   3.677   0.666   0.927  0.1747  1.0273  1.9280
 2341SOL     OW 3745   0.555   1.412   1.891 -0.2816  0.5023  0.2108
 2341SOL    HW1 3746   0.556   1.399   1.986  0.0187 -0.1888  0.1195
 2341SOL    HW2 3747   0.642   1.446   1.871 -0.0223 -0.2008  0.0845
 2342SOL     OW 3748   3.438   0.579   1.516  0.1224 -0.0251  0.3517
 2342SOL    HW1 3749   3.409   0.543   1.599  1.3811  0.9083  1.2345
 2342SOL    HW2 3750   3.403   0.519   1.450  0.0033 -1.3877  1.6059
 2343SOL     OW 3751   3.830   0.887   1.500  1.1318 -0.7967  0.0549
 2343SOL    HW1 3752   3.751   0.856   1.545  1.5890 -1.3889  0.4589
 2343SOL    HW2 3753   3.824   0.848   1.413 -0.1547  0.9881 -0.7005
 2344SOL     OW 3754   0.604   1.365   2.161  0.0039  0.0732  0.1166
 2344SOL    HW1 3755   0.611   1.275   2.193 -1.6886 -0.2749 -0.3916
 2344SOL    HW2 3756   0.693   1.398   2.163  0.5436 -1.3561  1.0691
 2345SOL     OW 3757   4.273   4.171   1.116 -0.1137 -0.5237  0.0960
 2345SOL    HW1 3758   4.246   4.259   1.091 -4.3872 -1.3144  1.2410
 2345SOL    HW2 3759   4.279   4.174   1.211 -0.4438 -1.5219  0.1559
 2346SOL     OW 3760   2.930   0.431   1.799 -0.0487 -0.0007  0.3286
 2346SOL    HW1 3761   2.975   0.383   1.869 -1.3497  0.2879  1.3957
 2346SOL    HW2 3762   2.914   0.518   1.835 -1.8110 -0.2125  0.1652
 2347SOL     OW 3763   2.527   3.271   1.780 -0.3168  0.4081  0.8769
 2347SOL    HW1 3764   2.619   3.245   1.790  0.1557  2.6011  3.2038
 2347SOL    HW2 3765   2.531   3.358   1.741 -1.2221  1.5440  3.1743
 2348SOL     OW 3766   2.844   3.469   2.194 -0.4885  0.3524  0.1828
 2348SOL    HW1 3767   2.901   3.473   2.271  1.5036  0.6920 -1.2244
 2348SOL    HW2 3768   2.788   3.546   2.202 -0.2262  0.4525  1.2397
 2349SOL     OW 3769   4.164   0.823   3.145 -0.0954  0.4912  0.4574
 2349SOL    HW1 3770   4.221   0.825   3.068 -0.5725  0.3837  0.0953
 2349SOL    HW2 3771   4.212   0.771   3.209  0.1475  0.2771  0.1049
 2350SOL     OW 3772   3.165   0.949   3.932 -0.4093 -0.0949 -0.1500
 2350SOL    HW1 3773   3.114   1.015   3.883  0.4652  1.0108  0.3850
 2350SOL    HW2 3774   3.101   0.883   3.956 -1.4716  0.9245 -0.0729
 2351SOL     OW 3775   1.617   1.367   2.390  0.0948 -0.5723  0.4355
 2351SOL    HW1 3776   1.563   1.366   2.312  1.0291 -0.6202 -0.2320
 2351SOL    HW2 3777   1.629   1.460   2.410  1.1621 -0.4971 -0.4385
 2352SOL     OW 3778   1.545   2.456   1.503 -0.7512 -0.0788  0.9619
 2352SOL    HW1 3779   1.545   2.399   1.580 -0.9874 -1.2075  0.1462
 2352SOL    HW2 3780   1.629   2.502   1.508 -0.0893 -1.2631  1.0896
 2353SOL     OW 3781   2.670   1.042   1.946  0.3668  0.0907  0.0798
 2353SOL    HW1 3782   2.707   1.034   1.858 -0.2962  2.9455 -0.5587
 2353SOL    HW2 3783   2.577   1.023   1.935  0.0430  1.6891 -0.1351
 2354SOL     OW 3784   0.608   1.533   2.452  0.1925 -0.1479  0.1465
 2354SOL    HW1 3785   0.621   1.502   2.362 -1.9514  2.1695 -1.0868
 2354SOL    HW2 3786   0.523   1.496   2.478 -0.0672  0.6746  0.4909
 2355SOL     OW 3787   3.984   0.571   3.258 -0.3881  0.8235 -0.5618
 2355SOL    HW1 3788   4.077   0.568   3.280 -0.6638  2.1670  0.9057
 2355SOL    HW2 3789   3.964   0.481   3.230  0.5575 -0.4743  2.5096
 2356SOL     OW 3790   0.794   1.011   4.205 -0.1819 -0.1235 -0.0154
 2356SOL    HW1 3791   0.702   0.987   4.221  0.1761 -0.9083  0.9357
 2356SOL    HW2 3792   0.843   0.963   4.271  0.8891  0.6108 -0.2628
 2357SOL     OW 3793   0.551   1.612   4.316 -0.4684 -0.6252 -0.5423
 2357SOL    HW1 3794   0.537   1.704   4.293 -0.4782 -0.5137 -0.1004
 2357SOL    HW2 3795   0.628   1.587   4.266 -0.7063 -0.4983 -0.9864
 2358SOL     OW 3796   1.335   1.702   2.628 -0.1371 -0.3108  0.1907
 2358SOL    HW1 3797   1.405   1.767   2.636 -0.2735  0.0236 -1.1068
 2358SOL    HW2 3798   1.285   1.710   2.710 -0.4270  1.5655 -0.1163
 2359SOL     OW 3799   0.224   0.293   4.387 -0.3828  0.0528  0.0675
 2359SOL    HW1 3800   0.273   0.362   4.433  0.0464  0.9042 -1.6100
 2359SOL    HW2 3801   0.202   0.231   4.456  0.1782  1.3112  1.4494
 2360SOL     OW 3802   1.491   2.579   3.134  0.4585 -0.2067 -0.0280
 2360SOL    HW1 3803   1.413   2.535   3.170 -0.2551  0.6742 -0.4538
 2360SOL    HW2 3804   1.557   2.510   3.129 -0.4718 -1.1126 -0.1991
 2361SOL     OW 3805   0.195   2.071   4.451  0.3074 -0.1895  0.5405
 2361SOL    HW1 3806   0.258   2.091   4.382 -0.4981  2.4089  0.4769
 2361SOL    HW2 3807   0.235   2.105   4.531  0.8793 -2.4742  1.3047
 2362SOL     OW 3808   3.703   1.350   1.006 -0.3389 -0.8393  0.0896
 2362SOL    HW1 3809   3.696   1.426   0.947  1.2401 -1.6941 -1.3112
 2362SOL    HW2 3810   3.728   1.387   1.090 -0.7411  0.2835 -0.2653
 2363SOL     OW 3811   1.956   3.253   3.887  0.3307  0.1170 -0.2250
 2363SOL    HW1 3812   1.984   3.343   3.868 -0.9107  0.4245 -0.6741
 2363SOL    HW2 3813   2.001   3.200   3.820  0.2603  0.5299 -0.6048
 2364SOL     OW 3814   0.406   2.964   1.230  0.2311  0.0080  0.5621
 2364SOL    HW1 3815   0.413   3.037   1.292 -0.9832 -0.1237  0.8972
 2364SOL    HW2 3816   0.436   2.999   1.147 -0.5873  0.9938  0.6578
 2365SOL     OW 3817   1.601   0.818   3.485 -0.6658 -0.3519  0.6094
 2365SOL    HW1 3818   1.585   0.724   3.485  2.4571 -1.0432 -1.9842
 2365SOL    HW2 3819   1.652   0.835   3.564 -1.2748 -0.7992  1.1025
 2366SOL     OW 3820   3.088   1.352   2.927 -0.4899  0.0360 -0.2076
 2366SOL    HW1 3821   3.082   1.259   2.907 -2.0975 -0.3210  1.6130
 2366SOL    HW2 3822   2.997   1.379   2.941 -0.0427  1.8749 -0.5723
 2367SOL     OW 3823   0.383   2.329   1.700 -0.7585  0.2174 -0.0414
 2367SOL    HW1 3824   0.425   2.275   1.632 -1.4838 -0.3464 -0.0563
 2367SOL    HW2 3825   0.296   2.348   1.665 -1.5383 -0.9553  1.1503
 2368SOL     OW 3826   0.684   1.230   2.883  0.5975 -0.0682  0.8003
 2368SOL    HW1 3827   0.649   1.319   2.873  1.4434  0.4251  1.9387
 2368SOL    HW2 3828   0.633   1.177   2.823  0.3229  1.2593 -0.1811
 2369SOL     OW 3829   0.957   0.797   3.786 -0.1181 -0.3988 -0.6598
 2369SOL    HW1 3830   0.875   0.747   3.778  0.9604 -2.1311 -1.5380
 2369SOL    HW2 3831   0.986   0.780   3.876 -0.8356  0.4497 -0.2532
 2370SOL     OW 3832   0.820   0.464   2.430  0.0039  1.0173 -0.1321
 2370SOL    HW1 3833   0.905   0.495   2.399  0.5904 -0.8088 -0.4748
 2370SOL    HW2 3834   0.823   0.369   2.419 -2.2555  0.9247 -0.5498
 2371SOL     OW 3835   3.817   4.075   2.695  0.5558  0.9128 -0.0261
 2371SOL    HW1 3836   3.828   4.126   2.775  1.0269 -0.8894  1.1161
 2371SOL    HW2 3837   3.731   4.101   2.662  0.5398  2.0082  0.8226
 2372SOL     OW 3838   0.423   1.376   4.069 -0.3111 -0.2375 -0.1533
 2372SOL    HW1 3839   0.377   1.450   4.110 -1.1678 -0.0961 -1.3247
 2372SOL    HW2 3840   0.508   1.411   4.046 -0.2616  0.0262  0.4159
 2373SOL     OW 3841   4.216   0.169   1.058 -0.4524  0.1568  0.1524
 2373SOL    HW1 3842   4.251   0.256   1.038  0.9601 -0.1235  1.2147
 2373SOL    HW2 3843   4.213   0.124   0.974 -0.5099  0.9988 -0.3056
 2374SOL     OW 3844   0.938   2.194   2.596 -0.4124  0.1890 -0.1495
 2374SOL    HW1 3845   0.855   2.146   2.602 -1.5770  2.0627 -0.5093
 2374SOL    HW2 3846   0.970   2.174   2.508 -0.6958 -0.1975 -0.1724
 2375SOL     OW 3847   3.684   3.320   5.174  0.4675  0.3758  0.1778
 2375SOL    HW1 3848   3.635   3.366   5.106  0.8334  0.4164 -0.0574
 2375SOL    HW2 3849   3.766   3.368   5.183  0.1065  0.8311  1.1966
 2376SOL     OW 3850   0.261   1.465   3.307 -0.3251 -0.2644 -0.0025
 2376SOL    HW1 3851   0.269   1.559   3.291  1.4393 -0.0366  1.8163
 2376SOL    HW2 3852   0.188   1.457   3.368  0.4392  0.1061  0.9801
 2377SOL     OW 3853   0.858   0.853   2.007 -0.3348 -0.0066  0.1357
 2377SOL    HW1 3854   0.881   0.767   2.043  0.9951  0.4397  0.4188
 2377SOL    HW2 3855   0.864   0.842   1.912 -0.6807 -0.3499  0.1508
 2378SOL     OW 3856   1.946   1.762   1.507 -0.1542  0.3391  0.2158
 2378SOL    HW1 3857   1.855   1.760   1.476  0.0723  0.5878 -0.4945
 2378SOL    HW2 3858   1.962   1.674   1.541  0.2902 -0.7521 -2.5388
 2379SOL     OW 3859   0.192   3.345   1.874  0.2464  0.5929  0.0388
 2379SOL    HW1 3860   0.137   3.326   1.798  0.5407 -0.4190  0.0653
 2379SOL    HW2 3861   0.138   3.401   1.929 -0.7453 -0.3283  0.0337
 2380SOL     OW 3862   0.754   2.123   3.604  0.2015 -0.0107 -0.5170
 2380SOL    HW1 3863   0.811   2.157   3.536 -0.6352 -1.5800 -2.0848
 2380SOL    HW2 3864   0.808   2.060   3.652  0.3141 -0.1821 -0.8647
 2381SOL     OW 3865   1.029   0.668   1.122 -0.3505 -0.5104 -0.2264
 2381SOL    HW1 3866   1.088   0.707   1.057  0.3773 -1.4203 -0.1283
 2381SOL    HW2 3867   1.024   0.576   1.097  0.0259 -0.9006  1.0672
 2382SOL     OW 3868   3.640   0.157   2.851 -0.1197  0.2876  0.4358
 2382SOL    HW1 3869   3.647   0.113   2.936  0.0982 -0.0736  0.2371
 2382SOL    HW2 3870   3.730   0.181   2.829  0.4104 -2.6182 -1.2281
 2383SOL     OW 3871   0.432   1.188   4.941 -0.3434 -0.2863 -0.1270
 2383SOL    HW1 3872   0.384   1.240   4.876  0.6731  0.0389 -0.6391
 2383SOL    HW2 3873   0.394   1.214   5.025  1.2399  2.6204 -0.1806
 2384SOL     OW 3874   1.880   1.169   3.794 -0.1518 -0.3397 -0.2208
 2384SOL    HW1 3875   1.929   1.160   3.876  1.1245  0.4906 -0.8623
 2384SOL    HW2 3876   1.798   1.123   3.811 -0.4783  0.8572  1.9748
 2385SOL     OW 3877   1.362   0.288   2.232 -0.5139 -0.5798 -0.4592
 2385SOL    HW1 3878   1.419   0.351   2.187 -2.9300  0.6462 -1.9967
 2385SOL    HW2 3879   1.422   0.221   2.265  1.7271  0.0686 -2.8809
 2386SOL     OW 3880   0.498   3.967   4.176 -0.3222  0.0052 -0.2536
 2386SOL    HW1 3881   0.555   3.907   4.128 -0.2096  0.5041 -0.7549
 2386SOL    HW2 3882   0.477   4.035   4.113  0.4036  1.0641  0.6109
 2387SOL     OW 3883   2.029   2.763   1.185  0.5367 -0.4898  0.2751
 2387SOL    HW1 3884   2.093   2.834   1.189  0.1346 -0.0773 -0.4921
 2387SOL    HW2 3885   2.075   2.692   1.138  0.9701 -0.7844  1.1248
 2388SOL     OW 3886   1.637   1.063   3.356  0.0868 -0.1884 -0.1546
 2388SOL    HW1 3887   1.638   0.994   3.422  0.3857  0.7572  0.8704
 2388SOL    HW2 3888   1.631   1.017   3.272 -2.2679 -1.3820  0.5819
 2389SOL     OW 3889   1.005   1.588   1.003 -0.2843  0.0108 -0.0110
 2389SOL    HW1 3890   1.095   1.618   1.014  0.1712 -0.9443 -0.9535
 2389SOL    HW2 3891   0.987   1.537   1.083 -0.2346  0.7442  0.4817
 2390SOL     OW 3892   1.533   1.901   2.643  0.6029 -0.2867 -0.1112
 2390SOL    HW1 3893   1.577   1.880   2.725  0.2490  1.4277  0.5683
 2390SOL    HW2 3894   1.593   1.961   2.598  1.0394 -1.6249 -1.3943
 2391SOL     OW 3895   1.692   2.105   2.795 -0.4802  0.5096 -0.1876
 2391SOL    HW1 3896   1.728   2.063   2.874 -0.7291  1.9135  0.7034
 2391SOL    HW2 3897   1.631   2.170   2.828 -2.1055 -0.2143 -1.6224
 2392SOL     OW 3898   1.369   0.493   2.792 -0.8029  0.3980  0.5522
 2392SOL    HW1 3899   1.322   0.430   2.846  0.1293 -0.7824  0.0371
 2392SOL    HW2 3900   1.390   0.445   2.712  0.1465  1.2792  0.2505
 2393SOL     OW 3901   1.649   2.999   4.410  0.5999  0.2996 -0.0655
 2393SOL    HW1 3902   1.666   2.956   4.494 -0.1608 -0.9482 -0.5206
 2393SOL    HW2 3903   1.723   3.058   4.397  0.8015  0.4072  1.4065
 2394SOL     OW 3904   0.244   2.512   4.298  0.9099 -0.0399  0.2424
 2394SOL    HW1 3905   0.276   2.598   4.324  2.9319 -0.9708  0.9851
 2394SOL    HW2 3906   0.311   2.478   4.238 -1.7008  0.4034 -3.2831
 2395SOL     OW 3907   2.772   2.772   1.014  0.1946  0.1426 -0.2118
 2395SOL    HW1 3908   2.752   2.813   0.930  2.2416  0.8997 -0.3904
 2395SOL    HW2 3909   2.776   2.679   0.995 -3.0484 -0.1488 -0.1087
 2396SOL     OW 3910   4.041   1.217   4.056  0.4673 -0.4272 -0.3547
 2396SOL    HW1 3911   3.984   1.141   4.069 -1.2443  0.6458 -1.1970
 2396SOL    HW2 3912   4.072   1.209   3.966  1.3163 -0.7567 -0.0476
 2397SOL     OW 3913   1.055   0.110   0.692  0.0463 -0.3221  0.1720
 2397SOL    HW1 3914   1.089   0.199   0.690  0.5082 -0.5166 -0.9529
 2397SOL    HW2 3915   0.960   0.121   0.695  0.1318  0.2043  1.3579
 2398SOL     OW 3916   1.742   3.535   1.693 -0.1439 -0.1090  0.6867
 2398SOL    HW1 3917   1.700   3.594   1.756 -0.4564 -1.0499  1.3991
 2398SOL    HW2 3918   1.682   3.533   1.619  0.3940  1.2818  0.1783
 2399SOL     OW 3919   4.271   1.977   2.898 -0.1122 -0.4365  0.0782
 2399SOL    HW1 3920   4.311   2.053   2.939  2.2036 -1.0976 -0.7681
 2399SOL    HW2 3921   4.285   1.990   2.804  2.2144 -2.7381 -0.0289
 2400SOL     OW 3922   0.558   1.506   2.878  0.2924  0.2333  0.1644
 2400SOL    HW1 3923   0.492   1.478   2.942 -2.4669 -1.7140 -3.2084
 2400SOL    HW2 3924   0.526   1.591   2.846  1.4305  0.9878  0.9247
 2401SOL     OW 3925   0.539   0.420   2.791 -0.1099 -0.4289  0.6375
 2401SOL    HW1 3926   0.630   0.449   2.797 -0.1843  0.0716 -0.3770
 2401SOL    HW2 3927   0.544   0.325   2.802  0.7517 -0.6124 -1.0064
 2402SOL     OW 3928   3.641   1.137   1.333 -0.6421  0.3660  0.0773
 2402SOL    HW1 3929   3.621   1.122   1.425 -2.9979 -0.5368 -0.5014
 2402SOL    HW2 3930   3.573   1.199   1.304 -0.1519  0.3546 -1.1288
 2403SOL     OW 3931   3.234   4.192   4.373 -0.2464  0.4430 -0.2924
 2403SOL    HW1 3932   3.231   4.215   4.280  1.7234  0.1473 -0.4702
 2403SOL    HW2 3933   3.165   4.245   4.413 -0.4167  1.3800 -1.7542
 2404SOL     OW 3934   0.997   3.678   2.225  0.3751  0.2747  0.3476
 2404SOL    HW1 3935   0.903   3.678   2.208  0.3255  1.3252  0.5465
 2404SOL    HW2 3936   1.032   3.746   2.168  0.9986 -0.0327  0.3577
 2405SOL     OW 3937   3.428   0.341   3.650  0.2725  0.1249  0.2702
 2405SOL    HW1 3938   3.516   0.336   3.686  0.8559 -0.3545 -1.1540
 2405SOL    HW2 3939   3.382   0.266   3.687  1.2523 -1.1201 -0.9312
 2406SOL     OW 3940   0.417   0.790   3.975 -0.3015  0.3711 -0.2807
 2406SOL    HW1 3941   0.488   0.754   3.921 -1.2397 -0.8757 -0.7083
 2406SOL    HW2 3942   0.380   0.715   4.020 -1.0161  1.0880  0.3551
 2407SOL     OW 3943   1.165   0.090   1.595  0.2030  0.0833 -0.9264
 2407SOL    HW1 3944   1.131   0.001   1.584 -0.1319 -0.1945  1.5671
 2407SOL    HW2 3945   1.214   0.086   1.677  0.8923  2.0062 -1.2097
 2408SOL     OW 3946   2.627   0.035   2.345 -0.4018  0.2681 -0.0141
 2408SOL    HW1 3947   2.623   0.017   2.251  0.3818 -2.3140  0.3803
 2408SOL    HW2 3948   2.573  -0.034   2.384 -0.3053  1.0129  1.4884
 2409SOL     OW 3949   1.664   0.830   2.035 -0.6363 -0.3672 -0.4601
 2409SOL    HW1 3950   1.665   0.813   2.129  0.6360 -0.5111 -0.4823
 2409SOL    HW2 3951   1.595   0.896   2.023 -1.9921 -1.5854  0.3275
 2410SOL     OW 3952   3.505   1.402   2.450  0.4428 -0.0338 -0.1585
 2410SOL    HW1 3953   3.510   1.469   2.518  0.7251  0.1487 -0.3581
 2410SOL    HW2 3954   3.411   1.397   2.428  0.1011 -1.2683  1.3939
 2411SOL     OW 3955   1.540   0.582   0.966 -0.0850  0.3162 -0.5359
 2411SOL    HW1 3956   1.479   0.620   1.029  0.3589  0.2062 -0.0349
 2411SOL    HW2 3957   1.594   0.522   1.017 -0.8626 -1.1345 -1.3370
 2412SOL     OW 3958   1.990   0.337   2.031 -0.4070 -0.2333 -0.2021
 2412SOL    HW1 3959   1.960   0.329   2.121 -2.1635 -1.6865 -0.8509
 2412SOL    HW2 3960   1.989   0.247   1.997 -0.5576  0.3650 -1.8966
 2413SOL     OW 3961   1.475   0.711   2.956 -0.1369  0.4783  0.0424
 2413SOL    HW1 3962   1.436   0.637   2.910  1.7013  0.1788 -1.1059
 2413SOL    HW2 3963   1.410   0.781   2.948 -0.4072  0.0589 -1.9514
 2414SOL     OW 3964   2.910   3.571   2.917 -0.1203 -0.2098  0.6180
 2414SOL    HW1 3965   2.986   3.630   2.921  0.2542 -0.7594  2.0624
 2414SOL    HW2 3966   2.837   3.624   2.951 -0.0118 -0.2570  0.9190
 2415SOL     OW 3967   3.198   1.383   2.329 -0.0795 -0.3948 -0.2799
 2415SOL    HW1 3968   3.198   1.328   2.250  1.5936 -0.9885  0.1000
 2415SOL    HW2 3969   3.126   1.348   2.382  0.3165 -1.6006 -0.4888
 2416SOL     OW 3970   0.838   0.231   3.784  0.5313  0.3095 -0.0205
 2416SOL    HW1 3971   0.837   0.311   3.731 -1.9170 -1.6289 -3.2502
 2416SOL    HW2 3972   0.746   0.205   3.789  1.2382 -2.2598  0.9651
 2417SOL     OW 3973   0.982   2.043   2.094  0.1276 -0.0011  0.2874
 2417SOL    HW1 3974   0.922   2.116   2.087 -1.7438 -1.6349 -1.8397
 2417SOL    HW2 3975   1.049   2.060   2.027 -0.5572 -0.4304 -0.5180
 2418SOL     OW 3976   2.217   3.775   3.598  0.3475 -1.0368  0.9844
 2418SOL    HW1 3977   2.189   3.712   3.531  3.2345  0.0749 -1.5340
 2418SOL    HW2 3978   2.194   3.860   3.561 -0.5535 -0.4659  2.7939
 2419SOL     OW 3979   3.910   1.481   1.210 -0.8295  0.2676  0.3235
 2419SOL    HW1 3980   3.885   1.544   1.142  0.4435  0.9845  0.4949
 2419SOL    HW2 3981   3.881   1.522   1.292  0.5810  0.9590  0.4949
 2420SOL     OW 3982   0.578   1.693   1.649  0.2680  0.2637 -0.1307
 2420SOL    HW1 3983   0.538   1.606   1.651  1.4732 -0.3855 -1.6749
 2420SOL    HW2 3984   0.662   1.679   1.605  0.3110  2.2969 -0.7725
 2421SOL     OW 3985   2.504   0.384   1.601 -0.4382 -0.1089 -0.1040
 2421SOL    HW1 3986   2.492   0.468   1.645  0.7980  0.4628 -0.7805
 2421SOL    HW2 3987   2.498   0.318   1.671  3.9833  0.8843  1.5566
 2422SOL     OW 3988   1.152   0.657   1.763 -0.3093 -0.6630 -0.1200
 2422SOL    HW1 3989   1.146   0.748   1.793  1.8494 -0.0528 -1.3585
 2422SOL    HW2 3990   1.129   0.605   1.840 -1.8135  0.8838  0.5652
 2423SOL     OW 3991   0.120   1.150   3.175  0.3564  0.0173  0.9508
 2423SOL    HW1 3992   0.210   1.159   3.204  0.5459 -0.0874  0.4034
 2423SOL    HW2 3993   0.126   1.119   3.085 -0.2416 -1.8283  1.4980
 2424SOL     OW 3994   2.597   0.426   3.920 -0.3753 -0.2868  0.1507
 2424SOL    HW1 3995   2.502   0.410   3.917 -0.8521  2.0939  0.7618
 2424SOL    HW2 3996   2.611   0.502   3.864  0.6491  1.3766  2.5156
 2425SOL     OW 3997   4.047   0.814   3.567  0.1759 -0.0007 -0.5564
 2425SOL    HW1 3998   3.958   0.793   3.539  0.8695 -1.9193 -1.4619
 2425SOL    HW2 3999   4.057   0.907   3.545 -2.1330  0.7584  1.1530
 2426SOL     OW 4000   1.539   0.344   4.103 -0.6751 -0.6607 -0.0450
 2426SOL    HW1 4001   1.501   0.304   4.025 -1.0226  0.9543 -0.7489
 2426SOL    HW2 4002   1.629   0.362   4.079 -0.1667 -2.0638  0.6950
 2427SOL     OW 4003   0.194   3.512   4.613  0.5597  0.5778  0.0728
 2427SOL    HW1 4004   0.124   3.450   4.590  1.3553 -0.8341  1.2910
 2427SOL    HW2 4005   0.201   3.505   4.708  2.1633  0.8967  0.0007
 2428SOL     OW 4006   2.008   0.204   3.984 -0.9028  0.1129  0.3146
 2428SOL    HW1 4007   2.032   0.175   3.896 -1.9805 -2.3136  0.7373
 2428SOL    HW2 4008   2.091   0.208   4.032 -0.3662  0.9654 -0.6415
 2429SOL     OW 4009   0.853   0.211   0.967 -0.1319 -0.3883  0.2731
 2429SOL    HW1 4010   0.820   0.161   0.893  1.9338 -0.0658 -0.9398
 2429SOL    HW2 4011   0.869   0.145   1.035  0.3905 -1.0808 -0.5032
 2430SOL     OW 4012   4.288   0.670   4.673 -0.1147  0.0113  0.2682
 2430SOL    HW1 4013   4.296   0.579   4.645 -0.7948  0.2316 -0.7119
 2430SOL    HW2 4014   4.317   0.721   4.597  0.3567  0.6085  0.8418
 2431SOL     OW 4015   0.547   0.150   2.866  0.3630  0.4232  0.0510
 2431SOL    HW1 4016   0.468   0.159   2.920 -0.8653 -1.5091 -1.3067
 2431SOL    HW2 4017   0.577   0.061   2.883 -0.9899 -0.8772 -3.5003
 2432SOL     OW 4018   3.781   0.805   0.905  0.1773  0.1023  0.5597
 2432SOL    HW1 4019   3.738   0.890   0.913 -0.6895 -0.3014  0.3794
 2432SOL    HW2 4020   3.862   0.814   0.954  0.0168  0.9807  0.6785
 2433SOL     OW 4021   0.329   3.885   1.255  0.2312 -0.0039  0.0012
 2433SOL    HW1 4022   0.354   3.966   1.210  0.3261  0.7395  1.3544
 2433SOL    HW2 4023   0.262   3.912   1.318  1.3027 -0.7048  1.5001
 2434SOL     OW 4024   0.486   1.206   1.412  0.1741 -0.3879 -0.1883
 2434SOL    HW1 4025   0.447   1.124   1.443  1.7659 -0.7501  0.9539
 2434SOL    HW2 4026   0.580   1.195   1.426  0.5399  1.1767 -1.1449
 2435SOL     OW 4027   2.470   0.169   1.243  0.0422  0.2717  0.1231
 2435SOL    HW1 4028   2.531   0.236   1.211  0.5684 -0.9354 -1.4844
 2435SOL    HW2 4029   2.463   0.106   1.172 -2.1859 -0.2653  0.7216
 2436SOL     OW 4030   0.589   2.880   4.189  0.5784  0.7846  0.0192
 2436SOL    HW1 4031   0.549   2.962   4.159 -2.2421 -0.8328 -1.0562
 2436SOL    HW2 4032   0.638   2.848   4.113 -0.0907  0.4632 -0.2827
 2437SOL     OW 4033   3.991   1.869   4.104  0.5824 -0.2680 -0.2306
 2437SOL    HW1 4034   4.013   1.819   4.025  1.1896 -1.3138  0.5772
 2437SOL    HW2 4035   3.942   1.808   4.158  1.0563  0.1108  0.6446
 2438SOL     OW 4036   2.259   1.880   2.715 -0.1526  0.3659  0.5468
 2438SOL    HW1 4037   2.279   1.905   2.805 -1.6506  1.5565  0.6015
 2438SOL    HW2 4038   2.164   1.888   2.709 -0.2956 -1.5724 -0.6137
 2439SOL     OW 4039   4.150   3.602   1.043 -0.1194  0.2536  0.2900
 2439SOL    HW1 4040   4.196   3.682   1.070 -0.3572  0.5281 -0.1024
 2439SOL    HW2 4041   4.202   3.531   1.079 -0.0064  0.5915  0.8091
 2440SOL     OW 4042   0.106   0.736   2.665 -0.4616  0.4017 -0.0735
 2440SOL    HW1 4043   0.067   0.778   2.589  0.2952  0.6768 -0.3165
 2440SOL    HW2 4044   0.188   0.699   2.633 -0.7674 -0.6402  0.3054
 2441SOL     OW 4045   1.427   3.223   1.525 -0.0578 -0.0107  0.5601
 2441SOL    HW1 4046   1.344   3.271   1.532 -1.7918 -2.4073 -1.7562
 2441SOL    HW2 4047   1.410   3.139   1.567  1.7110 -0.0594  1.2644
 2442SOL     OW 4048   3.764   3.265   3.981  0.0703  0.0865 -0.4190
 2442SOL    HW1 4049   3.780   3.196   4.046  1.9807 -0.5286 -1.4756
 2442SOL    HW2 4050   3.834   3.255   3.917 -1.3274  1.1464 -2.2145
 2443SOL     OW 4051   3.610   3.336   2.713  0.3145  0.2223 -0.0883
 2443SOL    HW1 4052   3.623   3.292   2.797 -2.9155  0.2636  0.5723
 2443SOL    HW2 4053   3.566   3.418   2.737 -1.2351 -0.0462 -1.8141
 2444SOL     OW 4054   0.474   2.009   5.089 -0.1739 -0.5638 -0.1882
 2444SOL    HW1 4055   0.541   2.052   5.035  0.8089 -2.6487 -0.7014
 2444SOL    HW2 4056   0.398   2.067   5.082  1.0884  1.1045 -0.8018
 2445SOL     OW 4057   1.924   2.751   3.189  0.3238 -0.5478  0.1459
 2445SOL    HW1 4058   1.869   2.777   3.115 -0.0078  1.3308  0.9850
 2445SOL    HW2 4059   2.004   2.716   3.149  0.4654  1.1152 -1.1219
 2446SOL     OW 4060   0.520   3.956   1.437  0.2390  0.0419  0.0280
 2446SOL    HW1 4061   0.477   3.912   1.364 -2.6845 -1.1605  2.2560
 2446SOL    HW2 4062   0.534   4.045   1.407  0.6982 -0.8081 -2.5258
 2447SOL     OW 4063   3.871   1.096   4.600  0.4678  0.2863  0.8358
 2447SOL    HW1 4064   3.868   1.095   4.505  3.2623  2.4821  0.6005
 2447SOL    HW2 4065   3.850   1.186   4.624 -1.2412 -0.4762  2.4227
 2448SOL     OW 4066   3.951   2.752   4.383 -0.5532  0.6155 -0.6065
 2448SOL    HW1 4067   3.915   2.667   4.409  0.3650  0.5438  0.4987
 2448SOL    HW2 4068   3.873   2.807   4.369 -1.1356 -0.1491 -0.4303
 2449SOL     OW 4069   1.291   0.043   2.562 -0.7638  0.4492  0.1135
 2449SOL    HW1 4070   1.202   0.039   2.597  0.1992 -2.0098  2.6755
 2449SOL    HW2 4071   1.345   0.065   2.637  1.0138 -0.5035 -0.8328
 2450SOL     OW 4072   3.014   3.066   3.517  0.3389 -0.5480 -0.0256
 2450SOL    HW1 4073   3.099   3.091   3.479  0.6756 -3.5422 -1.5755
 2450SOL    HW2 4074   3.037   3.027   3.601  0.4725 -0.7674 -0.1592
 2451SOL     OW 4075   1.372   2.097   1.585  0.6854 -0.0974 -0.4274
 2451SOL    HW1 4076   1.426   2.052   1.521 -0.1596 -1.1650 -0.4217
 2451SOL    HW2 4077   1.313   2.152   1.533  1.7225  1.0594 -0.4336
 2452SOL     OW 4078   0.396   4.185   4.010  0.1828 -0.1886 -0.0270
 2452SOL    HW1 4079   0.351   4.217   4.088 -0.8057  0.2400 -0.7522
 2452SOL    HW2 4080   0.361   4.238   3.939  0.9353 -0.6909 -0.7899
 2453SOL     OW 4081   3.593   0.358   3.431  0.0795 -0.4574 -0.5733
 2453SOL    HW1 4082   3.523   0.352   3.496 -0.4554 -0.6176 -1.1517
 2453SOL    HW2 4083   3.662   0.408   3.474 -0.7355  0.4489 -0.2912
 2454SOL     OW 4084   1.620   1.941   3.103  0.5192 -0.0193 -0.1003
 2454SOL    HW1 4085   1.544   1.991   3.075  0.7319  0.4654  0.1729
 2454SOL    HW2 4086   1.583   1.860   3.139  0.2569 -0.7141 -1.8646
 2455SOL     OW 4087   0.576   0.456   2.220  0.3297 -0.9181 -0.1904
 2455SOL    HW1 4088   0.669   0.443   2.203  0.9660  0.8397  1.5148
 2455SOL    HW2 4089   0.571   0.468   2.315 -1.5017 -0.0653 -0.3489
 2456SOL     OW 4090   2.832   1.408   2.880  0.1357  0.1737 -0.4346
 2456SOL    HW1 4091   2.904   1.462   2.844  0.5015 -1.1764 -1.8464
 2456SOL    HW2 4092   2.755   1.463   2.872  0.7090  0.9675 -0.6400
 2457SOL     OW 4093   3.113   0.598   2.707 -0.0508 -0.1064  0.0966
 2457SOL    HW1 4094   3.063   0.530   2.753  0.9052  0.2504  1.7350
 2457SOL    HW2 4095   3.162   0.643   2.776  1.2569  0.6298 -1.2426
 2458SOL     OW 4096   0.546   1.820   2.431  0.6880  0.4106 -0.4190
 2458SOL    HW1 4097   0.560   1.734   2.392  1.3947  1.0295 -1.5994
 2458SOL    HW2 4098   0.624   1.836   2.484  0.7983  0.5511 -0.6254
 2459SOL     OW 4099   2.855   1.003   3.147 -0.2323 -0.4130 -0.0553
 2459SOL    HW1 4100   2.894   1.090   3.142  1.8563 -1.0921  2.2241
 2459SOL    HW2 4101   2.930   0.943   3.148 -1.5599 -2.1718 -0.3139
 2460SOL     OW 4102   1.669   0.329   2.355  0.2120 -0.0803 -0.0147
 2460SOL    HW1 4103   1.634   0.398   2.299 -0.5800  1.6168  2.4097
 2460SOL    HW2 4104   1.759   0.315   2.323 -0.1172  0.9652 -1.5011
 2461SOL     OW 4105   0.656   3.378   3.041  0.6912  0.4859 -0.2271
 2461SOL    HW1 4106   0.646   3.441   3.113 -0.0237  0.8138 -0.6013
 2461SOL    HW2 4107   0.745   3.393   3.008  0.5806  1.1991 -0.2124
 2462SOL     OW 4108   0.026   1.778   4.678 -0.0285 -0.3867 -0.3258
 2462SOL    HW1 4109   0.120   1.766   4.664  0.4255  0.8986  1.3151
 2462SOL    HW2 4110  -0.010   1.785   4.590  1.2865 -1.6158 -1.0152
 2463SOL     OW 4111   1.067   0.131   1.338  0.6285  0.0003  0.0435
 2463SOL    HW1 4112   1.139   0.180   1.298 -0.4192  2.7620  1.2317
 2463SOL    HW2 4113   1.086   0.134   1.432  1.0639 -2.9417  0.1209
 2464SOL     OW 4114   1.250   3.014   2.166 -0.6477 -0.2435  0.5262
 2464SOL    HW1 4115   1.256   3.076   2.239 -0.7424 -1.1742  1.3400
 2464SOL    HW2 4116   1.185   3.053   2.107  1.3878  1.8779 -0.4565
 2465SOL     OW 4117   0.795   1.857   4.029  0.1263  0.1984  0.5377
 2465SOL    HW1 4118   0.734   1.790   3.999 -0.1508  0.1867  1.1144
 2465SOL    HW2 4119   0.746   1.939   4.025  0.6934  0.4945 -0.8695
 2466SOL     OW 4120   0.268   3.952   3.905 -0.0054  0.7003 -0.8949
 2466SOL    HW1 4121   0.310   4.015   3.962 -0.4144  0.5155 -0.3856
 2466SOL    HW2 4122   0.244   4.002   3.827  2.6011  0.4954 -1.9552
 2467SOL     OW 4123   2.339   1.402   1.807  0.0742  0.0187 -0.4986
 2467SOL    HW1 4124   2.367   1.392   1.716 -0.7177 -1.3447 -0.6264
 2467SOL    HW2 4125   2.420   1.415   1.856  0.5835 -0.0112 -1.3104
 2468SOL     OW 4126   3.725   1.925   1.352 -0.1227  0.1717  0.0619
 2468SOL    HW1 4127   3.641   1.947   1.311 -0.0090  0.9512  0.2427
 2468SOL    HW2 4128   3.745   2.000   1.408  1.8906  1.1505 -1.8360
 2469SOL     OW 4129   0.954   2.154   3.436 -0.3274  0.3452 -0.5934
 2469SOL    HW1 4130   0.955   2.110   3.351  1.0250  0.7087 -0.8018
 2469SOL    HW2 4131   1.030   2.213   3.432 -1.3614  1.7934  0.1277
 2470SOL     OW 4132   4.294   1.887   4.117  0.6249  0.5528  0.1234
 2470SOL    HW1 4133   4.284   1.811   4.059  1.3311  1.3660 -1.1222
 2470SOL    HW2 4134   4.205   1.918   4.132  0.3992  0.0669 -0.1742
 2471SOL     OW 4135   1.848   0.679   1.125  0.5601 -0.5149 -0.6184
 2471SOL    HW1 4136   1.930   0.727   1.113 -0.2577  1.1061  0.0310
 2471SOL    HW2 4137   1.856   0.640   1.212 -0.5798  2.2866  0.8485
 2472SOL     OW 4138   1.103   4.032   1.731  0.3207  0.0936  0.2096
 2472SOL    HW1 4139   1.087   4.104   1.670  0.3874  1.0450  1.2821
 2472SOL    HW2 4140   1.072   4.065   1.816  0.6542 -1.0208  0.7820
 2473SOL     OW 4141   1.685   1.154   1.973  0.3811  0.3896 -0.7292
 2473SOL    HW1 4142   1.631   1.176   1.898 -0.9719  0.5592  0.2660
 2473SOL    HW2 4143   1.760   1.108   1.936  0.1501  1.1868 -2.2425
 2474SOL     OW 4144   3.128   3.387   3.038  0.0854 -0.1531 -0.0188
 2474SOL    HW1 4145   3.059   3.446   3.007 -1.6934 -2.0215  0.1280
 2474SOL    HW2 4146   3.145   3.414   3.128 -0.8628  0.0412  0.1153
 2475SOL     OW 4147   0.838   1.882   1.719 -0.7348 -0.2286  0.4082
 2475SOL    HW1 4148   0.871   1.832   1.795 -1.7812  0.1720  1.1448
 2475SOL    HW2 4149   0.760   1.926   1.752 -1.1713  0.0009 -0.9085
 2476SOL     OW 4150   2.115   4.178   1.938  0.2594  0.2510  0.2236
 2476SOL    HW1 4151   2.075   4.192   2.024  1.3723  0.9615  0.6482
 2476SOL    HW2 4152   2.115   4.083   1.927 -0.1379  0.1647  0.8955
 2477SOL     OW 4153   3.730   3.638   2.832 -0.0934 -0.1371 -0.0949
 2477SOL    HW1 4154   3.716   3.586   2.912 -1.0104  0.8714  0.4220
 2477SOL    HW2 4155   3.657   3.616   2.775  1.2754 -1.9065 -1.2879
 2478SOL     OW 4156   0.389   1.051   2.277  0.5868  0.0237  0.0647
 2478SOL    HW1 4157   0.479   1.085   2.279  0.8634 -0.4944 -1.8380
 2478SOL    HW2 4158   0.387   0.987   2.349  2.0524 -0.6357 -0.4359
 2479SOL     OW 4159   0.903   2.667   3.655  0.0616  0.1349  0.5485
 2479SOL    HW1 4160   0.915   2.573   3.639  0.2027  0.4922 -1.8464
 2479SOL    HW2 4161   0.974   2.690   3.715 -0.3639 -1.3774  1.7080
 2480SOL     OW 4162   3.278   1.118   1.814 -0.1044 -0.5046 -0.1788
 2480SOL    HW1 4163   3.339   1.192   1.821 -0.0313 -0.6866  1.3460
 2480SOL    HW2 4164   3.200   1.155   1.774  0.3592  0.1283 -0.5159
 2481SOL     OW 4165   0.439   0.796   6.207  0.0745 -0.2163  0.3744
 2481SOL    HW1 4166   0.468   0.872   6.257 -1.5717  1.1070 -0.5923
 2481SOL    HW2 4167   0.346   0.785   6.231 -0.7595  0.4307 -2.2787
 2482SOL     OW 4168   1.147   1.026   2.762 -0.3154  0.1067 -0.0364
 2482SOL    HW1 4169   1.178   1.017   2.852 -0.4402 -1.9748 -0.1535
 2482SOL    HW2 4170   1.220   0.997   2.708 -0.2439  1.3382 -0.6378
 2483SOL     OW 4171   1.602   0.262   1.896  0.0146 -0.0171  0.7290
 2483SOL    HW1 4172   1.598   0.233   1.805 -0.3770 -0.6675  0.9389
 2483SOL    HW2 4173   1.622   0.355   1.891  0.0921 -0.0648 -0.0192
 2484SOL     OW 4174   0.529   0.548   3.397  0.2346  0.0335 -0.6005
 2484SOL    HW1 4175   0.472   0.625   3.401  1.1954  0.6978  1.2687
 2484SOL    HW2 4176   0.529   0.523   3.304 -2.5323  0.3905 -0.7756
 2485SOL     OW 4177   0.205   1.075   2.855  0.8785  0.3245  0.3018
 2485SOL    HW1 4178   0.280   1.123   2.821 -0.4123  2.2102 -0.0307
 2485SOL    HW2 4179   0.135   1.090   2.791  0.0110 -0.7976  0.9399
 2486SOL     OW 4180   3.425   1.694   0.919  0.8611 -0.3408  0.0989
 2486SOL    HW1 4181   3.372   1.762   0.961  2.4755  1.5526 -0.7855
 2486SOL    HW2 4182   3.361   1.641   0.872 -0.4724  0.5132  0.8561
 2487SOL     OW 4183   3.617   0.265   3.827  0.3308  0.3823 -0.4956
 2487SOL    HW1 4184   3.626   0.319   3.905 -0.9199 -0.4867  0.3079
 2487SOL    HW2 4185   3.700   0.218   3.819  0.7254  1.0101 -0.1113
 2488SOL     OW 4186   4.002   0.746   4.712 -0.1446 -0.1117 -0.2300
 2488SOL    HW1 4187   4.091   0.718   4.733  0.2447  0.9819 -0.3726
 2488SOL    HW2 4188   3.946   0.677   4.748  0.6651  0.1545  1.6352
 2489SOL     OW 4189   0.749   2.305   1.463  0.2470 -0.4116 -0.0239
 2489SOL    HW1 4190   0.784   2.256   1.538 -0.5228 -1.0013 -0.0400
 2489SOL    HW2 4191   0.663   2.266   1.446 -0.3388  0.8566 -0.1303
 2490SOL     OW 4192   3.256   1.449   1.885 -0.3065 -0.8916  0.0963
 2490SOL    HW1 4193   3.236   1.519   1.946 -0.7297 -2.3449  1.7214
 2490SOL    HW2 4194   3.336   1.409   1.918  1.4581  0.4041 -2.3204
 2491SOL     OW 4195   3.279   1.687   2.963  0.0324 -0.4763 -0.6439
 2491SOL    HW1 4196   3.227   1.663   2.886  1.8328 -1.2803 -1.6508
 2491SOL    HW2 4197   3.286   1.606   3.013  0.4623 -0.4169 -0.6051
 2492SOL     OW 4198   1.066   0.989   2.390  0.3048  0.1139  0.0384
 2492SOL    HW1 4199   1.145   0.937   2.406  0.3296  0.0970 -0.1344
 2492SOL    HW2 4200   1.072   1.060   2.453  1.3168  1.0604 -1.0641
 2493SOL     OW 4201   3.121   0.410   4.062  0.5198  0.2405 -0.4558
 2493SOL    HW1 4202   3.052   0.436   4.001  0.8750 -2.0561 -2.0068
 2493SOL    HW2 4203   3.182   0.359   4.008  2.1120  0.0860  1.3721
 2494SOL     OW 4204   4.312   0.516   4.371  0.4164  0.4798  0.8794
 2494SOL    HW1 4205   4.384   0.568   4.336  1.7309 -1.8524 -0.1598
 2494SOL    HW2 4206   4.345   0.485   4.456  0.7762 -0.7478  0.3162
 2495SOL     OW 4207   1.202   2.717   3.400  0.3223 -0.0622 -0.4960
 2495SOL    HW1 4208   1.194   2.704   3.305 -0.1773  1.9535 -0.7706
 2495SOL    HW2 4209   1.112   2.728   3.430  0.4193 -1.3945  0.3669
 2496SOL     OW 4210   0.316   0.543   2.947  0.4503  0.3116  0.1088
 2496SOL    HW1 4211   0.319   0.639   2.941  0.7611  0.2221 -1.7531
 2496SOL    HW2 4212   0.381   0.513   2.884  0.6385 -1.1417  0.9507
 2497SOL     OW 4213   0.751   0.174   2.412  0.0595  0.0588  0.0097
 2497SOL    HW1 4214   0.774   0.126   2.491  1.3656 -0.9908 -0.9670
 2497SOL    HW2 4215   0.668   0.136   2.383  1.3282 -2.0391 -1.0374
 2498SOL     OW 4216   1.841   2.120   2.516  0.4165 -0.0007 -0.2066
 2498SOL    HW1 4217   1.821   2.083   2.602  1.7521 -0.3040  0.0043
 2498SOL    HW2 4218   1.885   2.203   2.535  1.8802 -0.6729 -0.5372
 2499SOL     OW 4219   1.514   2.756   1.487 -0.8632  0.0602  0.2784
 2499SOL    HW1 4220   1.483   2.833   1.440  1.6923  1.2908  0.4403
 2499SOL    HW2 4221   1.587   2.723   1.434  1.4668  0.9058  2.7406
 2500SOL     OW 4222   0.579   4.046   3.211 -0.0426 -0.7706  0.4023
 2500SOL    HW1 4223   0.610   4.033   3.301 -1.7935 -0.3609  1.1043
 2500SOL    HW2 4224   0.564   4.140   3.205 -1.4861 -0.9881  0.2420
 2501SOL     OW 4225   3.978   1.219   2.536  0.3558  0.1081 -0.0653
 2501SOL    HW1 4226   3.891   1.185   2.556  0.9494  0.5246  4.1703
 2501SOL    HW2 4227   4.034   1.141   2.534  0.3560  0.0837  0.6072
 2502SOL     OW 4228   2.531   1.849   3.825 -0.5428  0.2504 -0.0596
 2502SOL    HW1 4229   2.480   1.930   3.830 -2.4197 -0.7870 -1.2484
 2502SOL    HW2 4230   2.482   1.793   3.765  1.6573 -1.1106 -0.7125
 2503SOL     OW 4231   3.270   0.914   3.421 -0.5756  0.3658 -0.0981
 2503SOL    HW1 4232   3.222   0.895   3.501 -0.6058 -2.0322 -0.6111
 2503SOL    HW2 4233   3.354   0.950   3.451 -1.2872  1.2353  0.9144
 2504SOL     OW 4234   0.347   1.377   3.765 -0.2450  0.5124 -0.3107
 2504SOL    HW1 4235   0.307   1.293   3.740  2.5445 -1.1291  0.3483
 2504SOL    HW2 4236   0.305   1.399   3.848 -1.5201  0.1687 -0.8398
 2505SOL     OW 4237   0.309   0.413   3.590  0.3959 -0.4037  0.6375
 2505SOL    HW1 4238   0.364   0.478   3.547  0.7416 -0.7767  0.5038
 2505SOL    HW2 4239   0.220   0.448   3.585  0.8162  1.0296  2.3626
 2506SOL     OW 4240   0.897   0.295   3.053 -0.2682  0.1490  0.1362
 2506SOL    HW1 4241   0.825   0.235   3.072 -1.3157  0.8571 -1.3832
 2506SOL    HW2 4242   0.925   0.327   3.139 -3.0295  1.2878  0.7268
 2507SOL     OW 4243   3.848   0.936   2.465 -0.6841 -0.1125  0.8727
 2507SOL    HW1 4244   3.942   0.953   2.477 -0.5268 -0.4209  0.1418
 2507SOL    HW2 4245   3.814   1.016   2.427 -0.7100 -0.0124  1.1070
 2508SOL     OW 4246   1.512   1.160   2.512 -0.4570  0.0936  0.4785
 2508SOL    HW1 4247   1.493   1.082   2.460 -1.0293 -0.0448  0.8879
 2508SOL    HW2 4248   1.562   1.216   2.453  0.9602 -1.0497  0.5353
 2509SOL     OW 4249   1.452   0.052   2.761 -0.0809 -0.2161 -0.4582
 2509SOL    HW1 4250   1.534   0.102   2.754  0.1731 -0.7995 -1.8616
 2509SOL    HW2 4251   1.439   0.042   2.855  0.7680  1.0053 -0.1739
 2510SOL     OW 4252   0.035   0.144   2.865  0.1060 -0.5861  0.3258
 2510SOL    HW1 4253   0.055   0.230   2.826  0.6531 -0.4422  0.9190
 2510SOL    HW2 4254   0.034   0.084   2.790  1.2716 -0.3346  0.0886
 2511SOL     OW 4255   2.707   1.181   3.428  0.5314 -0.3157  0.1514
 2511SOL    HW1 4256   2.691   1.176   3.334  0.6118  0.5408  0.0853
 2511SOL    HW2 4257   2.624   1.213   3.465  0.8534  0.4238  0.2412
 2512SOL     OW 4258   1.674   0.033   4.940  0.5421  0.3740  0.0861
 2512SOL    HW1 4259   1.687   0.052   4.848  0.7589 -1.9354 -0.4237
 2512SOL    HW2 4260   1.601  -0.030   4.942 -2.1237  3.1909  1.8366
 2513SOL     OW 4261   1.510   3.164   3.147 -0.3153 -0.8156  0.0151
 2513SOL    HW1 4262   1.454   3.097   3.185 -0.3300 -0.6272  0.3293
 2513SOL    HW2 4263   1.599   3.132   3.161 -0.3089 -0.5691  0.5427
 2514SOL     OW 4264   0.806   1.500   1.851  0.7201 -0.3186 -0.5520
 2514SOL    HW1 4265   0.820   1.582   1.804 -1.5747  0.9675  0.8218
 2514SOL    HW2 4266   0.867   1.503   1.925  0.2986  0.4091 -0.2254
 2515SOL     OW 4267   0.513   4.128   2.219 -0.0376  0.0482 -0.7482
 2515SOL    HW1 4268   0.523   4.156   2.310  3.8862 -0.6126 -0.7939
 2515SOL    HW2 4269   0.428   4.086   2.216 -1.3322  2.1242  2.0003
 2516SOL     OW 4270   4.258   1.730   1.093  0.0798 -0.0235 -0.3789
 2516SOL    HW1 4271   4.264   1.674   1.170  0.9459  1.1372  0.4197
 2516SOL    HW2 4272   4.259   1.819   1.128  1.6135  0.5528 -1.7871
 2517SOL     OW 4273   4.104   2.725   0.933 -0.1581  0.2027 -0.1178
 2517SOL    HW1 4274   4.137   2.774   1.009 -0.7827  0.2191  0.1511
 2517SOL    HW2 4275   4.063   2.648   0.972 -0.5098  0.2276 -0.4442
 2518SOL     OW 4276   0.050   1.522   3.508  0.2529  0.1765 -0.4968
 2518SOL    HW1 4277   0.030   1.593   3.447  1.7561 -0.5145 -1.8674
 2518SOL    HW2 4278  -0.036   1.489   3.535 -0.4547  1.7545 -0.7179
 2519SOL     OW 4279   3.486   0.378   5.397  0.1484 -0.3349  0.5619
 2519SOL    HW1 4280   3.539   0.303   5.424 -1.3771 -1.2351  1.1352
 2519SOL    HW2 4281   3.536   0.454   5.427  1.9771 -1.0444 -0.4773
 2520SOL     OW 4282   0.545   0.931   4.244  0.2063 -0.2069 -0.5701
 2520SOL    HW1 4283   0.483   0.877   4.293  0.5501 -0.0556  0.0417
 2520SOL    HW2 4284   0.513   0.929   4.154 -0.9701  0.2713 -0.1795
 2521SOL     OW 4285   1.480   0.923   5.087 -0.4152 -0.1856  0.3321
 2521SOL    HW1 4286   1.444   0.964   5.166 -0.7885  0.2231 -0.0446
 2521SOL    HW2 4287   1.571   0.904   5.109 -0.6056 -0.3799  0.9765
 2522SOL     OW 4288   2.402   1.040   3.342 -0.2804 -0.6263  0.1543
 2522SOL    HW1 4289   2.422   1.119   3.291  0.5220 -0.5531  0.5651
 2522SOL    HW2 4290   2.414   1.068   3.433 -0.6501 -1.0422  0.3286
 2523SOL     OW 4291   1.037   0.800   4.357  0.4807 -0.6312  0.0641
 2523SOL    HW1 4292   1.096   0.726   4.367 -0.5909 -1.3309  1.5486
 2523SOL    HW2 4293   1.013   0.824   4.447  0.9667  1.6614 -0.3615
 2524SOL     OW 4294   2.398   0.972   1.888  0.0020 -0.2197 -0.8188
 2524SOL    HW1 4295   2.412   0.896   1.830 -0.6397 -1.6855  0.8561
 2524SOL    HW2 4296   2.312   1.005   1.863 -0.0385 -0.4990 -1.0644
 2525SOL     OW 4297   2.533   2.363   7.289 -0.5296  0.5776  0.2941
 2525SOL    HW1 4298   2.459   2.421   7.308 -1.3373 -0.3942  0.2028
 2525SOL    HW2 4299   2.599   2.388   7.353 -1.1874  1.0283  0.8192
 2526SOL     OW 4300   0.285   0.922   6.547  0.1214 -0.3678  0.3937
 2526SOL    HW1 4301   0.200   0.881   6.558  0.4970 -1.0588  0.8194
 2526SOL    HW2 4302   0.274   1.011   6.582 -0.2711 -0.6343  0.9591
 2527SOL     OW 4303   3.865   0.113   3.832 -0.4413  0.3690 -0.0668
 2527SOL    HW1 4304   3.880   0.022   3.807 -0.7441  0.4318 -0.4831
 2527SOL    HW2 4305   3.935   0.133   3.894  1.3058  0.6920 -2.0205
 2528SOL     OW 4306   2.095   0.654   7.277  0.1045 -0.4056  0.3245
 2528SOL    HW1 4307   2.147   0.734   7.267 -1.6930  0.7883  0.0085
 2528SOL    HW2 4308   2.047   0.646   7.195 -3.3341  0.9374  1.9957
 2529SOL     OW 4309   1.544   2.320   7.296 -0.3878  0.2390 -0.4574
 2529SOL    HW1 4310   1.460   2.333   7.252 -0.3774  1.9172 -0.0452
 2529SOL    HW2 4311   1.528   2.250   7.359 -1.4007  0.3442 -0.5790
 2530SOL     OW 4312   2.943   1.961   5.891  0.1093 -0.1328  0.1081
 2530SOL    HW1 4313   2.954   2.022   5.963  0.6684  0.9698 -0.8695
 2530SOL    HW2 4314   2.902   1.884   5.930 -2.0050  1.4074  1.1132
 2531SOL     OW 4315   0.898   1.422   4.652  0.2128  0.1102 -0.7471
 2531SOL    HW1 4316   0.854   1.375   4.723  0.8030  0.0405 -0.4188
 2531SOL    HW2 4317   0.938   1.498   4.695 -1.6634  1.5784 -1.4416
 2532SOL     OW 4318   0.223   2.633   4.989  0.3588 -0.2928 -0.0518
 2532SOL    HW1 4319   0.161   2.608   4.920  0.0796 -0.0676  0.1165
 2532SOL    HW2 4320   0.170   2.681   5.052  1.0266  1.3575 -0.7069
 2533SOL     OW 4321   3.425   0.564   6.469 -0.2507  0.6325  0.3185
 2533SOL    HW1 4322   3.358   0.606   6.523 -2.2349 -1.1728 -0.5809
 2533SOL    HW2 4323   3.397   0.583   6.379  0.7742  0.2981 -0.0775
 2534SOL     OW 4324   4.222   1.648   6.329  0.3367 -0.2528 -0.3955
 2534SOL    HW1 4325   4.194   1.618   6.242  0.7613 -0.1798 -0.5595
 2534SOL    HW2 4326   4.275   1.726   6.311  0.5045 -0.2942 -0.0794
 2535SOL     OW 4327   1.469   1.240   3.482  0.4965  0.2707  0.0193
 2535SOL    HW1 4328   1.409   1.266   3.413  2.1689  2.3912 -0.7413
 2535SOL    HW2 4329   1.515   1.164   3.446 -0.8922 -0.6849  0.1768
 2536SOL     OW 4330   2.976   0.437   3.589 -0.0210  0.5904 -0.5845
 2536SOL    HW1 4331   2.963   0.472   3.501 -0.7400 -1.1026 -1.1815
 2536SOL    HW2 4332   2.946   0.346   3.584 -2.0823  0.9980  1.9177
 2537SOL     OW 4333   2.450   1.198   3.560 -0.4408 -0.5007 -0.3289
 2537SOL    HW1 4334   2.371   1.207   3.613 -0.7924  1.4451 -1.1236
 2537SOL    HW2 4335   2.520   1.233   3.615 -0.4612 -0.4142 -0.3577
 2538SOL     OW 4336   1.652   2.147   5.908  0.2065 -0.3411  0.3614
 2538SOL    HW1 4337   1.707   2.214   5.948 -0.1412 -0.4899  1.0992
 2538SOL    HW2 4338   1.613   2.190   5.832  0.3049  0.1655  0.5942
 2539SOL     OW 4339   1.058   1.804   3.444  0.3091 -0.0742 -0.0291
 2539SOL    HW1 4340   1.080   1.897   3.439  0.2470 -0.1058 -1.7341
 2539SOL    HW2 4341   1.141   1.758   3.436  0.2384 -0.1557 -0.3405
 2540SOL     OW 4342   4.116   0.671   6.418  0.2038  0.0540  0.0592
 2540SOL    HW1 4343   4.077   0.758   6.429  1.6680  0.6095  1.1684
 2540SOL    HW2 4344   4.109   0.654   6.324 -2.6257  0.0994  0.1839
 2541SOL     OW 4345   3.608   0.146   6.872 -0.6041  0.2937 -0.0053
 2541SOL    HW1 4346   3.569   0.061   6.853 -1.2065  0.6115 -0.2223
 2541SOL    HW2 4347   3.676   0.128   6.937 -0.0753 -0.4847 -0.7475
 2542SOL     OW 4348   2.892   2.178   4.923 -0.0139 -0.5390  0.0970
 2542SOL    HW1 4349   2.942   2.218   4.994  0.3573 -1.2151  0.2234
 2542SOL    HW2 4350   2.889   2.085   4.945  0.0304 -0.7398 -0.7261
 2543SOL     OW 4351   4.187   3.318   4.095  0.0680  0.0662  0.0726
 2543SOL    HW1 4352   4.263   3.368   4.066  1.6332 -0.5438  2.8390
 2543SOL    HW2 4353   4.132   3.382   4.141  0.8168 -0.2194  1.3921
 2544SOL     OW 4354   0.281   2.214   5.406 -0.5236 -0.0540 -0.2463
 2544SOL    HW1 4355   0.299   2.302   5.372 -0.6243  0.2489  0.4775
 2544SOL    HW2 4356   0.367   2.179   5.429 -0.5720  0.2811  0.4846
 2545SOL     OW 4357   1.421   2.125   3.062 -0.1894  0.4550 -0.4417
 2545SOL    HW1 4358   1.336   2.137   3.104 -0.9859 -1.4556 -1.3496
 2545SOL    HW2 4359   1.422   2.190   2.991 -0.7746  0.6512 -0.2744
 2546SOL     OW 4360   1.430   3.910   5.444 -0.1216  0.5193  0.1044
 2546SOL    HW1 4361   1.361   3.965   5.482 -0.1207  1.1924 -0.8298
 2546SOL    HW2 4362   1.401   3.820   5.461 -0.3133  0.7909  1.3168
 2547SOL     OW 4363   0.873   0.062   5.374 -0.0641  0.1083  0.1469
 2547SOL    HW1 4364   0.817  -0.015   5.374 -1.1376  0.8451 -1.7469
 2547SOL    HW2 4365   0.878   0.089   5.283  1.5178  1.4223  0.5717
 2548SOL     OW 4366   1.064   1.728   6.976  0.2545  0.1864  0.1753
 2548SOL    HW1 4367   1.030   1.804   6.928  1.4768  2.3713  2.5529
 2548SOL    HW2 4368   0.991   1.699   7.031 -0.4148 -0.8557 -1.1940
 2549SOL     OW 4369   4.208   1.936   3.363 -0.4753  0.4084  0.1527
 2549SOL    HW1 4370   4.157   1.911   3.440  1.6972 -0.1621  1.5155
 2549SOL    HW2 4371   4.228   1.853   3.320  0.9896  0.3711  0.8287
 2550SOL     OW 4372   0.030   3.301   4.972 -0.2297  0.0741 -0.0970
 2550SOL    HW1 4373  -0.021   3.282   4.893  1.1687 -0.5397 -0.8852
 2550SOL    HW2 4374   0.057   3.216   5.004 -0.0884  0.3666  0.5701
 2551SOL     OW 4375   1.776   2.452   2.829  0.1677 -0.1400 -0.1484
 2551SOL    HW1 4376   1.697   2.398   2.836  0.4481 -0.6349 -0.7277
 2551SOL    HW2 4377   1.810   2.457   2.918  0.5555 -1.5620 -0.1996
 2552SOL     OW 4378   1.908   2.397   4.702  0.4177 -0.4105  0.0176
 2552SOL    HW1 4379   1.874   2.328   4.759 -0.4000 -2.0203 -2.2691
 2552SOL    HW2 4380   1.949   2.349   4.629 -1.9486  1.4086 -2.7138
 2553SOL     OW 4381   2.456   2.424   5.791 -0.0836  0.5813 -0.0879
 2553SOL    HW1 4382   2.471   2.504   5.841 -1.2092  1.4271 -1.0609
 2553SOL    HW2 4383   2.541   2.403   5.753 -0.0145  2.0073 -0.7913
 2554SOL     OW 4384   3.373   3.555   5.156  0.2899  0.4325  0.1493
 2554SOL    HW1 4385   3.421   3.575   5.076  0.0468 -2.3827 -0.8333
 2554SOL    HW2 4386   3.280   3.559   5.131  0.2070 -0.2715  0.3074
 2555SOL     OW 4387   1.538   0.918   4.115  0.0118 -0.7854  0.5427
 2555SOL    HW1 4388   1.611   0.946   4.170 -0.7563 -1.7662  2.1450
 2555SOL    HW2 4389   1.491   0.855   4.169 -1.7160 -0.5764 -0.6478
 2556SOL     OW 4390   0.032   1.486   5.783 -0.0333  0.5546 -0.5259
 2556SOL    HW1 4391   0.070   1.532   5.708  2.3451 -0.1099  0.1797
 2556SOL    HW2 4392   0.049   1.393   5.766 -1.1314  0.2356 -0.0090
 2557SOL     OW 4393   1.349   3.380   3.255 -0.4601 -0.3275  0.2873
 2557SOL    HW1 4394   1.405   3.457   3.267 -2.1375  0.8217  1.0430
 2557SOL    HW2 4395   1.407   3.315   3.216  1.3753  0.8349  0.9349
 2558SOL     OW 4396   4.303   2.939   4.332  0.0153  0.1543 -0.0842
 2558SOL    HW1 4397   4.242   2.972   4.266 -0.4689 -0.5347  0.0086
 2558SOL    HW2 4398   4.253   2.937   4.413  1.4784  4.1097  1.1798
 2559SOL     OW 4399   1.174   0.911   4.676 -0.5663  0.2907 -0.0152
 2559SOL    HW1 4400   1.211   0.941   4.759 -1.3300  1.1437  0.0230
 2559SOL    HW2 4401   1.210   0.971   4.611 -2.6962  1.8513  0.1596
 2560SOL     OW 4402   0.134   4.230   4.128  0.1697  0.3779  0.4350
 2560SOL    HW1 4403   0.043   4.225   4.100  0.0900  0.0676  0.7424
 2560SOL    HW2 4404   0.130   4.230   4.224  0.4446  1.2866  0.4620
 2561SOL     OW 4405   0.322   2.101   4.181  0.1489  0.4689 -0.8953
 2561SOL    HW1 4406   0.394   2.163   4.192  0.5240  0.6074 -3.4791
 2561SOL    HW2 4407   0.284   2.123   4.096 -2.3222 -0.2845 -0.0859
 2562SOL     OW 4408   0.784   3.105   6.780 -0.0364  0.0120 -0.1737
 2562SOL    HW1 4409   0.699   3.069   6.752 -0.3441  0.7037 -0.1506
 2562SOL    HW2 4410   0.786   3.193   6.742 -0.8321  1.3356  2.5703
 2563SOL     OW 4411   1.722   1.739   4.632  0.0704 -0.4828  0.3938
 2563SOL    HW1 4412   1.686   1.656   4.600  0.1283 -0.3704  0.0310
 2563SOL    HW2 4413   1.645   1.793   4.650 -0.0561  0.8947 -3.3077
 2564SOL     OW 4414   2.942   0.445   3.872  0.1369  0.2182  0.6772
 2564SOL    HW1 4415   2.849   0.422   3.885  0.5068 -1.8826  0.0279
 2564SOL    HW2 4416   2.951   0.453   3.777  0.6241  0.4281  0.7411
 2565SOL     OW 4417   2.473   1.614   4.300 -0.4548 -0.3536  0.3865
 2565SOL    HW1 4418   2.521   1.531   4.296  0.8439  0.4329 -0.8304
 2565SOL    HW2 4419   2.492   1.658   4.217 -2.3114  0.5428  0.3749
 2566SOL     OW 4420   2.549   4.259   7.163 -0.5087 -0.2010  0.0963
 2566SOL    HW1 4421   2.554   4.176   7.211 -0.2269 -0.4847 -0.4128
 2566SOL    HW2 4422   2.459   4.263   7.131 -1.1426  0.7063  1.8879
 2567SOL     OW 4423   0.964   1.956   5.995  0.4467 -0.1128 -0.0034
 2567SOL    HW1 4424   0.994   2.019   6.060  3.1367 -0.9874 -0.2540
 2567SOL    HW2 4425   0.905   1.898   6.042  0.3285  0.7933  0.9842
 2568SOL     OW 4426   1.165   2.063   3.639  0.0001 -0.0019  0.4608
 2568SOL    HW1 4427   1.210   2.032   3.718  1.7412  0.7278 -0.2029
 2568SOL    HW2 4428   1.072   2.065   3.664  0.3823 -0.9215  2.0959
 2569SOL     OW 4429   1.977   0.473   3.721  0.1982 -0.0333 -0.5478
 2569SOL    HW1 4430   2.066   0.449   3.748  0.2824 -0.0884 -0.8717
 2569SOL    HW2 4431   1.933   0.389   3.706 -0.2766 -0.0426  0.7680
 2570SOL     OW 4432   0.248   0.824   2.934 -0.0304  0.5511 -0.1340
 2570SOL    HW1 4433   0.237   0.918   2.921  2.0451  0.8716 -0.0070
 2570SOL    HW2 4434   0.185   0.784   2.874 -0.8216  2.0040 -0.3273
 2571SOL     OW 4435   1.954   1.191   4.735 -0.0343 -0.1612 -0.2458
 2571SOL    HW1 4436   1.868   1.187   4.776  1.1701 -1.9868  2.5193
 2571SOL    HW2 4437   2.013   1.217   4.806  1.9156 -0.9134 -1.4836
 2572SOL     OW 4438   2.091   0.634   4.542 -0.9436  0.0259  0.1586
 2572SOL    HW1 4439   2.129   0.585   4.469  0.5950  0.5130  0.5771
 2572SOL    HW2 4440   2.009   0.589   4.562 -0.3806 -1.3668 -0.5351
 2573SOL     OW 4441   0.445   3.887   4.766 -0.8879 -0.3317  0.0258
 2573SOL    HW1 4442   0.446   3.980   4.788 -1.9286 -0.6699  1.7476
 2573SOL    HW2 4443   0.363   3.875   4.717 -1.6441 -0.5793  1.2790
 2574SOL     OW 4444   0.425   3.846   3.105 -0.1568 -0.0743 -0.5211
 2574SOL    HW1 4445   0.488   3.907   3.144 -0.3221  0.2135 -0.7029
 2574SOL    HW2 4446   0.357   3.836   3.172 -0.9159  1.1393 -1.0744
 2575SOL     OW 4447   3.866   1.540   4.535 -0.2465  0.0710  0.2362
 2575SOL    HW1 4448   3.841   1.449   4.550 -0.8610  0.3669  1.0577
 2575SOL    HW2 4449   3.851   1.554   4.441 -0.5860 -0.5373  0.1947
 2576SOL     OW 4450   1.710   1.753   5.220 -0.2411 -0.0792 -0.4643
 2576SOL    HW1 4451   1.728   1.762   5.314 -0.6271  1.9555 -0.5340
 2576SOL    HW2 4452   1.793   1.774   5.178 -0.5671  1.0332 -0.5934
 2577SOL     OW 4453   1.903   1.132   5.829  0.2936 -0.1789  0.3075
 2577SOL    HW1 4454   1.990   1.171   5.819  0.3434 -0.5106 -0.6319
 2577SOL    HW2 4455   1.904   1.055   5.772 -1.0429  0.5363 -0.7596
 2578SOL     OW 4456   0.316   2.668   5.914  0.6960  0.1917  0.3390
 2578SOL    HW1 4457   0.379   2.609   5.955  0.1912  0.1150  1.0314
 2578SOL    HW2 4458   0.310   2.742   5.975  1.9704  1.3994 -0.9296
 2579SOL     OW 4459   0.136   3.195   4.349 -0.2237  0.4803  0.1668
 2579SOL    HW1 4460   0.097   3.267   4.399 -1.9886  0.6934 -1.3869
 2579SOL    HW2 4461   0.068   3.171   4.285  1.2011 -1.0333 -0.8592
 2580SOL     OW 4462   1.286   2.135   1.966 -0.0873  0.2079  0.2118
 2580SOL    HW1 4463   1.231   2.209   1.992 -0.8047 -0.1035 -0.3889
 2580SOL    HW2 4464   1.375   2.167   1.979 -0.3749  0.2238  2.5693
 2581SOL     OW 4465   0.695   3.895   5.182 -0.8541 -0.0947 -0.8243
 2581SOL    HW1 4466   0.728   3.813   5.221  0.9155  1.2915  0.7868
 2581SOL    HW2 4467   0.614   3.913   5.229  0.0723  0.3500  0.6659
 2582SOL     OW 4468   3.627   3.578   3.288  0.4341  0.3193 -0.1277
 2582SOL    HW1 4469   3.648   3.491   3.322 -1.0839  0.1631  0.4519
 2582SOL    HW2 4470   3.678   3.638   3.342  1.4598 -0.1839 -0.5062
 2583SOL     OW 4471   2.958   0.744   3.918  0.1037  0.3598  0.0193
 2583SOL    HW1 4472   2.893   0.751   3.848 -0.6062 -1.6766  0.4133
 2583SOL    HW2 4473   2.938   0.661   3.961  1.4651  0.8522  1.7001
 2584SOL     OW 4474   0.226   1.200   4.038  0.1229 -0.1129 -0.5697
 2584SOL    HW1 4475   0.187   1.154   4.113 -0.1345 -2.7482 -2.1828
 2584SOL    HW2 4476   0.304   1.242   4.074 -0.7634 -0.0679  1.4449
 2585SOL     OW 4477   4.169   1.791   6.095 -0.5025  0.1494 -0.8266
 2585SOL    HW1 4478   4.157   1.716   6.038 -1.4446  0.7963 -1.5164
 2585SOL    HW2 4479   4.096   1.786   6.157  0.1938 -0.2351 -0.0155
 2586SOL     OW 4480   0.200   0.401   4.875 -0.2253 -0.0754  0.2774
 2586SOL    HW1 4481   0.156   0.470   4.926 -0.9385 -1.2973  1.3633
 2586SOL    HW2 4482   0.293   0.425   4.879 -0.3808  0.4377  1.2690
 2587SOL     OW 4483   0.833   0.537   4.333  0.7919 -0.5098  0.2313
 2587SOL    HW1 4484   0.896   0.466   4.319  2.4668  0.1020  3.6416
 2587SOL    HW2 4485   0.884   0.617   4.320 -0.4292  0.1151 -1.0501
 2588SOL     OW 4486   0.707   2.287   4.606 -0.4519 -0.1353  0.1241
 2588SOL    HW1 4487   0.782   2.253   4.558  2.2170  0.8350  3.2134
 2588SOL    HW2 4488   0.666   2.350   4.546  1.3596 -0.5090 -1.5969
 2589SOL     OW 4489   2.489   4.231   4.104  0.3905  0.2710  0.2246
 2589SOL    HW1 4490   2.528   4.293   4.167 -0.0704  2.5371 -1.5668
 2589SOL    HW2 4491   2.557   4.165   4.092  0.7776  0.1545  2.4999
 2590SOL     OW 4492   1.053   1.876   2.681 -0.1800  0.6853  0.1377
 2590SOL    HW1 4493   1.020   1.871   2.591  1.7275  0.0046 -0.5663
 2590SOL    HW2 4494   1.088   1.965   2.687  1.4431  0.1101 -0.4660
 2591SOL     OW 4495   0.167   0.734   4.254 -0.3096  0.0755 -0.2215
 2591SOL    HW1 4496   0.152   0.804   4.318  0.3039  1.3426 -1.3989
 2591SOL    HW2 4497   0.134   0.771   4.172  0.6879 -0.7420 -1.0093
 2592SOL     OW 4498   4.017   0.210   5.392 -0.1553 -0.1676 -0.1123
 2592SOL    HW1 4499   4.080   0.171   5.332 -1.4108 -1.0703 -0.9005
 2592SOL    HW2 4500   3.982   0.286   5.344  0.6145  0.5926  0.4956
 2593SOL     OW 4501   1.056   2.344   5.579  0.0946 -0.2281 -0.2744
 2593SOL    HW1 4502   0.962   2.364   5.575 -0.0470 -0.8806 -0.3481
 2593SOL    HW2 4503   1.061   2.266   5.634  0.7089  0.4532  0.6685
 2594SOL     OW 4504   1.968   0.960   5.463  0.3583  0.5234 -0.1233
 2594SOL    HW1 4505   1.905   1.021   5.425 -0.0776 -1.1090 -2.1887
 2594SOL    HW2 4506   1.919   0.914   5.532  0.0108  0.9161 -0.1100
 2595SOL     OW 4507   0.636   1.050   5.805 -0.4985  0.3458 -0.0689
 2595SOL    HW1 4508   0.693   1.125   5.822  1.9141 -1.5632  0.9233
 2595SOL    HW2 4509   0.591   1.036   5.888 -0.4071  0.2849 -0.0292
 2596SOL     OW 4510   0.257   1.435   6.032 -0.2065  0.1564  0.5363
 2596SOL    HW1 4511   0.204   1.514   6.019  0.4242  0.2897 -1.5624
 2596SOL    HW2 4512   0.309   1.427   5.952 -0.1095 -2.2927  0.7566
 2597SOL     OW 4513   0.216   2.099   3.747 -0.0605 -0.1787 -1.1455
 2597SOL    HW1 4514   0.261   2.099   3.663 -1.2322  3.4251 -1.9588
 2597SOL    HW2 4515   0.123   2.102   3.724 -0.5071 -1.2126  0.3705
 2598SOL     OW 4516   4.155   2.378   4.946 -0.0934  0.2671 -0.6877
 2598SOL    HW1 4517   4.112   2.325   5.013 -0.4217 -0.1065 -1.1890
 2598SOL    HW2 4518   4.084   2.409   4.891 -0.7644  5.7348  2.5398
 2599SOL     OW 4519   1.920   1.526   4.962 -0.0217  0.3808  0.0040
 2599SOL    HW1 4520   1.950   1.571   4.884 -1.2843  2.6219  0.7454
 2599SOL    HW2 4521   1.951   1.580   5.035 -0.0357 -0.9361  1.0425
 2600SOL     OW 4522   0.364   1.650   4.979  0.3958 -0.4066 -0.4496
 2600SOL    HW1 4523   0.329   1.717   4.920 -0.8861 -0.4266  0.2596
 2600SOL    HW2 4524   0.426   1.697   5.035 -0.6564  0.2608  0.1892
 2601SOL     OW 4525   0.014   3.119   5.515 -0.3760 -0.6227 -0.0511
 2601SOL    HW1 4526   0.063   3.055   5.566 -0.3819  0.0962  0.8849
 2601SOL    HW2 4527  -0.005   3.075   5.433  0.4634 -1.4701  0.1966
 2602SOL     OW 4528   0.571   0.743   5.973  0.2573  0.1435 -0.2028
 2602SOL    HW1 4529   0.522   0.761   5.894  0.7211 -0.4282 -0.6325
 2602SOL    HW2 4530   0.505   0.732   6.041 -0.1270  0.9669 -0.4327
 2603SOL     OW 4531   2.041   1.109   4.109  0.4124 -0.3874 -0.3012
 2603SOL    HW1 4532   2.064   1.151   4.192 -0.1356  3.2265 -1.7814
 2603SOL    HW2 4533   1.950   1.079   4.121 -0.8528  2.9673 -0.3986
 2604SOL     OW 4534   0.883   3.119   6.140  0.6146  0.1264  0.5265
 2604SOL    HW1 4535   0.853   3.080   6.057  1.4221  0.2148  0.1900
 2604SOL    HW2 4536   0.969   3.080   6.155  0.7831  0.6594  0.9557
 2605SOL     OW 4537   1.895   1.336   5.653  0.7775  0.1936 -0.0115
 2605SOL    HW1 4538   1.857   1.278   5.718  1.0959 -0.5221 -0.4540
 2605SOL    HW2 4539   1.989   1.318   5.656  1.1946  2.2371  1.3720
 2606SOL     OW 4540   0.422   2.804   6.430  0.4109  0.1839 -0.1189
 2606SOL    HW1 4541   0.429   2.816   6.336  1.1213 -0.0959 -0.1086
 2606SOL    HW2 4542   0.511   2.785   6.459 -0.0725 -1.5107  0.3609
 2607SOL     OW 4543   3.736   2.362   6.855 -0.2499  0.0989  0.1225
 2607SOL    HW1 4544   3.759   2.442   6.903  0.7529  0.0522 -0.2539
 2607SOL    HW2 4545   3.806   2.301   6.875 -1.9094 -1.3524  1.8638
 2608SOL     OW 4546   0.151   3.893   6.336 -0.2784 -0.5786 -0.3807
 2608SOL    HW1 4547   0.078   3.899   6.397 -0.1115  0.4609 -0.2610
 2608SOL    HW2 4548   0.168   3.799   6.327 -0.1322 -0.7572  1.3773
 2609SOL     OW 4549   0.914   0.133   5.090 -0.3242 -0.2965  0.0335
 2609SOL    HW1 4550   0.935   0.085   5.010  0.0804  0.2273 -0.1767
 2609SOL    HW2 4551   0.990   0.190   5.105 -0.8740  0.4175  0.1692
 2610SOL     OW 4552   0.904   0.725   4.897  0.1186 -0.1698 -0.0104
 2610SOL    HW1 4553   0.814   0.708   4.869  0.8118 -2.2558 -1.1889
 2610SOL    HW2 4554   0.944   0.770   4.823  0.8539 -2.1139 -0.8760
 2611SOL     OW 4555   0.474   0.993   3.550 -0.1244 -0.5789  0.1052
 2611SOL    HW1 4556   0.433   0.971   3.633  0.8326  1.0806  1.0880
 2611SOL    HW2 4557   0.529   1.069   3.570  1.6483 -1.3179 -1.6196
 2612SOL     OW 4558   0.388   0.595   4.677 -0.0924  0.5555 -0.2676
 2612SOL    HW1 4559   0.379   0.568   4.586 -0.3803  0.4548 -0.2110
 2612SOL    HW2 4560   0.355   0.685   4.679  0.9466  0.9573 -0.4733
 2613SOL     OW 4561   0.271   1.945   6.476  0.4929 -1.0734  0.1850
 2613SOL    HW1 4562   0.315   1.924   6.393 -0.4045 -0.1910 -0.5461
 2613SOL    HW2 4563   0.324   1.902   6.543  1.6773 -1.1852 -0.7822
 2614SOL     OW 4564   3.820   2.883   6.076 -0.1766 -0.2871 -0.1680
 2614SOL    HW1 4565   3.878   2.950   6.041 -0.3209  0.6025  1.2347
 2614SOL    HW2 4566   3.849   2.802   6.034 -0.3926  0.7019 -2.3734
 2615SOL     OW 4567   2.114   2.072   5.455  0.3115 -0.3916 -0.3458
 2615SOL    HW1 4568   2.023   2.043   5.455 -0.2055  1.0892 -1.1787
 2615SOL    HW2 4569   2.110   2.162   5.488  1.2672  0.1961 -1.7306
 2616SOL     OW 4570   0.675   0.277   5.162  0.2437  0.2506  0.5436
 2616SOL    HW1 4571   0.753   0.226   5.139 -0.9625 -1.0396 -0.9059
 2616SOL    HW2 4572   0.675   0.349   5.099  0.2346  0.2267  0.5166
 2617SOL     OW 4573   1.669   1.092   6.803  0.2211  0.2339 -0.0911
 2617SOL    HW1 4574   1.642   1.002   6.818 -1.5175  1.0252  2.1759
 2617SOL    HW2 4575   1.645   1.138   6.883  0.3621  2.8641 -1.4289
 2618SOL     OW 4576   0.131   2.127   6.871  0.0407  0.6711  0.4123
 2618SOL    HW1 4577   0.216   2.165   6.852 -0.3626  1.6045  0.4091
 2618SOL    HW2 4578   0.083   2.132   6.788  0.3680 -0.9460  0.0909
 2619SOL     OW 4579   0.713   3.176   7.044 -0.0684  0.1191 -0.2559
 2619SOL    HW1 4580   0.717   3.110   6.974 -1.3687 -2.0166  1.5136
 2619SOL    HW2 4581   0.773   3.144   7.111  0.6998  1.7949 -0.0961
 2620SOL     OW 4582   1.640   1.647   2.527  0.1791  0.1485 -0.2936
 2620SOL    HW1 4583   1.633   1.651   2.622 -0.2997 -1.1198 -0.2545
 2620SOL    HW2 4584   1.720   1.695   2.507 -0.1411  1.1221  0.6664
 2621SOL     OW 4585   3.850   1.932   5.326 -0.3145 -0.6254  0.5102
 2621SOL    HW1 4586   3.825   1.875   5.253  0.2034 -1.8078  1.2316
 2621SOL    HW2 4587   3.941   1.954   5.309 -0.5632  0.1579  0.1409
 2622SOL     OW 4588   3.998   3.091   6.346  0.3498  0.3145  0.0920
 2622SOL    HW1 4589   4.023   3.129   6.263 -1.8491  2.1228  0.1636
 2622SOL    HW2 4590   3.953   3.161   6.393  0.7804 -0.8770  2.4937
 2623SOL     OW 4591   0.684   1.609   5.764 -0.0443  0.5454  0.3676
 2623SOL    HW1 4592   0.746   1.659   5.817  1.3542 -0.1557 -0.5442
 2623SOL    HW2 4593   0.678   1.656   5.681  0.5260 -0.2442 -0.1360
 2624SOL     OW 4594   1.053   3.790   5.344  0.1329 -0.9951 -0.3565
 2624SOL    HW1 4595   1.047   3.862   5.282 -0.0666 -0.2872  0.4591
 2624SOL    HW2 4596   0.982   3.806   5.406 -0.0300 -2.0031 -0.2741
 2625SOL     OW 4597   4.198   1.078   2.799  0.1292 -0.4002  0.0212
 2625SOL    HW1 4598   4.143   1.110   2.870 -1.7017 -3.8185  0.3730
 2625SOL    HW2 4599   4.247   1.155   2.769 -0.4519  1.5835  3.6257
 2626SOL     OW 4600   3.432   2.608   5.733  0.4782  0.1231  0.5031
 2626SOL    HW1 4601   3.504   2.648   5.780  0.0857  2.3003 -0.6317
 2626SOL    HW2 4602   3.471   2.575   5.652  0.7613 -1.7510  1.3405
 2627SOL     OW 4603   3.508   3.712   4.990 -0.4317  0.3347  0.5131
 2627SOL    HW1 4604   3.536   3.693   4.900 -1.6591  2.1567 -0.3159
 2627SOL    HW2 4605   3.589   3.714   5.041  0.4805  0.9684 -0.9041
 2628SOL     OW 4606   3.633   0.557   6.157  0.2296  0.1160 -0.2797
 2628SOL    HW1 4607   3.552   0.606   6.140 -0.4836 -1.0923 -0.5056
 2628SOL    HW2 4608   3.603   0.469   6.178  1.5538 -0.7496 -1.8342
 2629SOL     OW 4609   0.297   0.699   3.350  0.1840 -0.4175  0.1221
 2629SOL    HW1 4610   0.209   0.719   3.381  0.3750 -0.4154  0.6803
 2629SOL    HW2 4611   0.331   0.782   3.317  0.2752 -0.2327  0.6688
 2630SOL     OW 4612   1.039   1.497   4.258 -0.3800  0.2914 -0.0533
 2630SOL    HW1 4613   1.043   1.467   4.349 -1.5626  0.7489  0.1652
 2630SOL    HW2 4614   1.022   1.417   4.208  1.2547 -0.1218 -0.0021
 2631SOL     OW 4615   0.001   3.701   5.225  0.1076  0.1163  0.2126
 2631SOL    HW1 4616  -0.044   3.686   5.308  2.2469  0.5580  1.5289
 2631SOL    HW2 4617  -0.063   3.749   5.171 -0.9728  0.7253  1.9681
 2632SOL     OW 4618   4.269   3.212   6.478  0.0205  0.8573 -0.3590
 2632SOL    HW1 4619   4.201   3.254   6.426  0.5580  0.6958 -1.2324
 2632SOL    HW2 4620   4.341   3.199   6.416  1.3138  2.1100  0.8259
 2633SOL     OW 4621   0.724   0.065   4.585  0.0696 -0.5535  0.0989
 2633SOL    HW1 4622   0.632   0.042   4.579 -0.0203  0.0457 -1.3185
 2633SOL    HW2 4623   0.745   0.101   4.498  1.6500 -0.7794  0.3576
 2634SOL     OW 4624   0.522   4.308   3.282  0.0704  0.9020 -0.4447
 2634SOL    HW1 4625   0.568   4.346   3.357 -0.0841  0.9517 -0.3749
 2634SOL    HW2 4626   0.468   4.380   3.249 -0.0217  0.8177 -0.4750
 2635SOL     OW 4627   0.046   2.070   6.607  0.3587  0.2625  0.1966
 2635SOL    HW1 4628   0.107   2.002   6.576 -1.5655 -1.6712  0.4559
 2635SOL    HW2 4629   0.055   2.140   6.542  2.7882  0.0407  0.1894
 2636SOL     OW 4630   1.578   2.280   5.687  0.9481  0.0704 -0.4663
 2636SOL    HW1 4631   1.541   2.361   5.652 -1.2598 -1.6739 -2.4477
 2636SOL    HW2 4632   1.627   2.243   5.614  2.5857 -0.0824  0.6543
 2637SOL     OW 4633   3.829   0.614   3.502  0.6040 -0.4707  0.1616
 2637SOL    HW1 4634   3.861   0.543   3.558 -0.4425 -0.2702  1.0456
 2637SOL    HW2 4635   3.865   0.595   3.416 -0.9636 -3.0134 -0.0328
 2638SOL     OW 4636   2.531   3.133   6.018 -0.0570  0.2157  0.0747
 2638SOL    HW1 4637   2.481   3.108   5.941 -2.8969  1.8222  1.2291
 2638SOL    HW2 4638   2.466   3.133   6.089  2.1810 -0.0477  2.2384
 2639SOL     OW 4639   1.181   0.278   6.239 -0.2686  0.2948 -0.2285
 2639SOL    HW1 4640   1.095   0.297   6.278  0.0796  1.0845  0.1882
 2639SOL    HW2 4641   1.237   0.350   6.270 -0.0303  1.1140 -2.4216
 2640SOL     OW 4642   1.093   2.352   5.987  0.0938 -0.2649 -0.2426
 2640SOL    HW1 4643   1.092   2.262   6.021 -3.3528 -0.4007 -0.3483
 2640SOL    HW2 4644   1.087   2.407   6.064  0.6846 -0.1826 -0.2530
 2641SOL     OW 4645   0.952   3.045   4.826 -0.0613 -0.3179  0.2447
 2641SOL    HW1 4646   0.920   3.037   4.736  1.7146 -1.3201 -0.3374
 2641SOL    HW2 4647   1.024   2.982   4.832  0.0202 -0.0990  2.3077
 2642SOL     OW 4648   1.176   4.098   3.877  0.2110  0.0487  0.4276
 2642SOL    HW1 4649   1.153   4.017   3.832  0.7521  0.7083 -1.0803
 2642SOL    HW2 4650   1.163   4.078   3.970 -0.6741 -1.4229  0.0131
 2643SOL     OW 4651   3.057   1.831   5.692 -0.5192 -0.3885  0.0503
 2643SOL    HW1 4652   3.008   1.863   5.768 -0.8840 -3.1422  1.0829
 2643SOL    HW2 4653   3.141   1.876   5.697 -1.4067  1.2703  0.6705
 2644SOL     OW 4654   0.596   4.206   7.383  0.5494 -0.0513 -0.3599
 2644SOL    HW1 4655   0.689   4.188   7.396  0.3406  0.4042  2.4568
 2644SOL    HW2 4656   0.590   4.301   7.383  0.2489 -0.0046 -2.7169
 2645SOL     OW 4657   0.051   2.195   4.877  0.0338 -0.0145  0.0401
 2645SOL    HW1 4658  -0.014   2.264   4.863 -0.3953  0.1012  2.2919
 2645SOL    HW2 4659   0.001   2.114   4.879  0.3153 -0.2206 -0.8049
 2646SOL     OW 4660   3.338   2.936   4.642 -0.5213 -0.1622 -0.4542
 2646SOL    HW1 4661   3.263   2.951   4.584  0.2794  0.3209 -1.3874
 2646SOL    HW2 4662   3.300   2.893   4.719 -1.5988 -0.9534 -1.3815
 2647SOL     OW 4663   0.108   0.822   3.989 -0.7027  0.5039 -0.0734
 2647SOL    HW1 4664   0.176   0.867   3.940  0.2578 -1.8249 -1.0381
 2647SOL    HW2 4665   0.116   0.730   3.963 -2.8964 -0.1813  1.3391
 2648SOL     OW 4666   3.839   0.252   4.873  0.2976  0.1731 -0.2823
 2648SOL    HW1 4667   3.865   0.168   4.834  0.1040 -0.5569  1.1207
 2648SOL    HW2 4668   3.754   0.235   4.914  0.1673  1.1084 -0.1366
 2649SOL     OW 4669   2.645   2.635   2.749  0.7006  0.1650 -0.2894
 2649SOL    HW1 4670   2.661   2.628   2.655 -0.2929  0.1033 -0.4658
 2649SOL    HW2 4671   2.696   2.564   2.788  1.2113  0.2681 -0.7658
 2650SOL     OW 4672   1.445   0.732   4.388  0.5962 -0.6209  0.1942
 2650SOL    HW1 4673   1.356   0.758   4.410  0.7185  0.3521 -0.4225
 2650SOL    HW2 4674   1.435   0.678   4.309  0.6784  0.8962 -0.8913
 2651SOL     OW 4675   1.444   0.611   4.136  0.4013  0.5378  0.1754
 2651SOL    HW1 4676   1.399   0.612   4.051 -0.3562  1.0647  0.5698
 2651SOL    HW2 4677   1.456   0.518   4.155  1.5208  0.4118 -0.9789
 2652SOL     OW 4678   3.174   0.706   6.490 -0.5569 -0.1746 -0.3906
 2652SOL    HW1 4679   3.104   0.666   6.438 -1.0854 -0.1809  0.3134
 2652SOL    HW2 4680   3.178   0.654   6.570 -0.1624  0.2050 -0.1549
 2653SOL     OW 4681   2.037   1.775   5.694 -0.1485 -0.3034  0.1632
 2653SOL    HW1 4682   2.067   1.862   5.719  0.0694 -0.1304 -0.6695
 2653SOL    HW2 4683   2.110   1.739   5.644 -0.6160 -0.5948 -0.3149
 2654SOL     OW 4684   1.042   4.251   6.576  0.3986  0.1599  0.2021
 2654SOL    HW1 4685   1.013   4.246   6.485 -3.4041  0.4907  1.2535
 2654SOL    HW2 4686   1.043   4.345   6.596 -1.9237  0.0115  1.2998
 2655SOL     OW 4687   0.964   1.114   5.846  1.0959  0.0896  0.3929
 2655SOL    HW1 4688   1.058   1.129   5.854  1.5045 -1.9267 -0.2310
 2655SOL    HW2 4689   0.946   1.037   5.899  0.2156 -0.9010 -1.2467
 2656SOL     OW 4690   2.047   4.180   5.209 -0.0869  0.3840 -0.4248
 2656SOL    HW1 4691   1.972   4.237   5.229 -0.7025 -0.6460  0.3255
 2656SOL    HW2 4692   2.036   4.160   5.116 -1.4204 -0.6527 -0.0817
 2657SOL     OW 4693   4.220   2.063   6.159 -0.7328 -0.3772 -0.1148
 2657SOL    HW1 4694   4.175   1.992   6.114 -1.7684  0.6287 -0.7058
 2657SOL    HW2 4695   4.282   2.096   6.094 -1.8430  0.7148 -0.6577
 2658SOL     OW 4696   1.504   2.620   4.124 -0.1812  0.4524 -0.7187
 2658SOL    HW1 4697   1.552   2.701   4.141 -0.8455  1.0756 -1.6784
 2658SOL    HW2 4698   1.538   2.557   4.188  0.2062  1.5395  0.1641
 2659SOL     OW 4699   0.115   2.768   5.181  0.3713 -0.0143  0.2099
 2659SOL    HW1 4700   0.044   2.705   5.170 -0.2075  0.7706 -0.7246
 2659SOL    HW2 4701   0.141   2.760   5.273 -1.2364 -0.0054  0.6939
 2660SOL     OW 4702   0.424   1.614   5.765 -0.3603 -0.7191 -0.3766
 2660SOL    HW1 4703   0.519   1.604   5.757 -0.5266 -2.9984  0.0190
 2660SOL    HW2 4704   0.412   1.662   5.847  0.4395 -0.0135 -0.6539
 2661SOL     OW 4705   4.075   3.178   4.522  0.1107  0.4756 -0.3783
 2661SOL    HW1 4706   3.980   3.181   4.526  0.0432 -0.7520 -0.6752
 2661SOL    HW2 4707   4.097   3.089   4.550  1.1751  0.7444 -0.3125
 2662SOL     OW 4708   1.940   1.832   3.324  1.1478 -0.0099 -0.0424
 2662SOL    HW1 4709   2.013   1.847   3.263  0.6005 -0.8709 -0.9526
 2662SOL    HW2 4710   1.888   1.912   3.318  1.2373  0.0207 -0.5285
 2663SOL     OW 4711   3.973   1.291   7.146 -0.4999  0.4671  0.3397
 2663SOL    HW1 4712   3.968   1.366   7.205  1.0152  0.3800  0.6225
 2663SOL    HW2 4713   3.919   1.224   7.188 -1.2006  1.1203  0.4988
 2664SOL     OW 4714   3.889   0.201   5.639  0.0976 -0.2270  0.4022
 2664SOL    HW1 4715   3.936   0.204   5.556 -0.4163 -0.5715  0.0947
 2664SOL    HW2 4716   3.889   0.292   5.669  0.5227 -0.1447  0.1596
 2665SOL     OW 4717   4.127   3.605   6.407 -0.3734 -0.0603 -0.7873
 2665SOL    HW1 4718   4.052   3.634   6.459  0.1891 -1.5695  0.9804
 2665SOL    HW2 4719   4.100   3.619   6.317 -2.2884  0.6048 -0.1652
 2666SOL     OW 4720   2.442   0.433   5.531 -0.0917 -0.1588 -0.2132
 2666SOL    HW1 4721   2.351   0.414   5.554  0.0377 -1.6801 -0.7997
 2666SOL    HW2 4722   2.446   0.417   5.437  0.5357  0.9926 -0.3918
 2667SOL     OW 4723   0.749   4.073   3.448  0.1741 -0.0196  0.4401
 2667SOL    HW1 4724   0.837   4.051   3.416 -1.1416 -0.0046 -3.7967
 2667SOL    HW2 4725   0.753   4.167   3.467  1.2221 -0.1808  1.1398
 2668SOL     OW 4726   0.657   1.107   5.063 -0.3003  0.3557 -0.1186
 2668SOL    HW1 4727   0.569   1.126   5.031 -0.3995  0.2565  0.0889
 2668SOL    HW2 4728   0.665   1.160   5.143  0.1764  1.0868 -0.6398
 2669SOL     OW 4729   2.117   0.403   5.557  0.3666 -0.6205  0.4031
 2669SOL    HW1 4730   2.073   0.485   5.535 -2.4927 -2.2713 -0.5291
 2669SOL    HW2 4731   2.112   0.351   5.477 -0.2837 -2.6573  1.6849
 2670SOL     OW 4732   1.656   2.413   6.181  0.6660 -0.4484  0.4041
 2670SOL    HW1 4733   1.701   2.422   6.096  0.6474 -0.0614  0.4319
 2670SOL    HW2 4734   1.563   2.414   6.158  0.6317  0.9076  0.5292
 2671SOL     OW 4735   4.000   3.712   4.616  0.1070 -0.2307  0.1931
 2671SOL    HW1 4736   3.917   3.694   4.572  0.5561  0.8379 -1.1557
 2671SOL    HW2 4737   4.067   3.682   4.555  0.7334 -0.0762  0.7871
 2672SOL     OW 4738   1.395   0.280   4.379 -0.0815  0.0765 -0.8322
 2672SOL    HW1 4739   1.430   0.294   4.291 -0.0333  0.3469 -0.7675
 2672SOL    HW2 4740   1.324   0.217   4.366 -0.0681  0.1089 -1.0638
 2673SOL     OW 4741   2.284   2.381   5.568 -0.5186 -0.0344  0.3360
 2673SOL    HW1 4742   2.320   2.419   5.648  1.2778 -3.6635  1.4759
 2673SOL    HW2 4743   2.351   2.399   5.501 -0.2968 -0.0922  0.5404
 2674SOL     OW 4744   1.385   2.985   5.820 -0.6764  0.2556  0.1143
 2674SOL    HW1 4745   1.401   2.938   5.738  2.8463 -1.6290  1.6435
 2674SOL    HW2 4746   1.420   3.072   5.805  0.2858 -0.1897 -0.3175
 2675SOL     OW 4747   2.086   0.457   5.843 -0.1864  0.0252  0.2862
 2675SOL    HW1 4748   1.996   0.429   5.853 -0.4540  0.4528 -0.8088
 2675SOL    HW2 4749   2.116   0.414   5.763  0.6038 -0.1657  0.6740
 2676SOL     OW 4750   2.319   1.596   4.985 -0.0008  0.1333 -0.4100
 2676SOL    HW1 4751   2.349   1.566   4.899  0.2797 -0.4865 -0.1038
 2676SOL    HW2 4752   2.320   1.517   5.039 -0.2628  0.5023  0.1378
 2677SOL     OW 4753   2.407   2.365   5.078  0.0526 -0.0707 -0.0687
 2677SOL    HW1 4754   2.410   2.396   5.169 -0.9302  1.3424 -0.4895
 2677SOL    HW2 4755   2.497   2.343   5.057  0.4032  0.2773  1.0182
 2678SOL     OW 4756   2.940   0.609   6.352  0.5416 -0.0574  0.3455
 2678SOL    HW1 4757   2.851   0.630   6.382  0.5884 -0.2371  0.6102
 2678SOL    HW2 4758   2.932   0.521   6.315  0.5574  0.0252  0.1462
 2679SOL     OW 4759   3.885   3.463   5.783  0.1924 -0.1968  0.0990
 2679SOL    HW1 4760   3.868   3.461   5.877 -0.8371  0.2431 -0.0615
 2679SOL    HW2 4761   3.798   3.469   5.743  0.5042 -1.9703 -0.9531
 2680SOL     OW 4762   1.564   0.528   3.507  0.0354  0.4082 -0.0951
 2680SOL    HW1 4763   1.659   0.529   3.509  0.1055  1.7817 -2.0217
 2680SOL    HW2 4764   1.541   0.440   3.476  0.6856  0.2744 -0.1988
 2681SOL     OW 4765   0.866   0.155   4.807  0.3913 -0.2207 -0.1533
 2681SOL    HW1 4766   0.939   0.096   4.822 -1.7208 -2.8316  0.5736
 2681SOL    HW2 4767   0.833   0.133   4.720 -0.2824  0.0508  0.0209
 2682SOL     OW 4768   1.192   0.015   5.087  0.2973 -0.7767  0.2055
 2682SOL    HW1 4769   1.183   0.106   5.114 -0.8145 -0.6885 -0.3959
 2682SOL    HW2 4770   1.272  -0.015   5.130 -0.3955 -0.1232  2.0557
 2683SOL     OW 4771   0.880   2.590   5.344  0.0475  0.7839  0.0828
 2683SOL    HW1 4772   0.949   2.656   5.356  1.7989 -0.8206 -0.5768
 2683SOL    HW2 4773   0.861   2.594   5.250  2.1115 -1.3683 -0.5158
 2684SOL     OW 4774   1.325   1.426   5.061  0.3088  0.6888  1.0635
 2684SOL    HW1 4775   1.248   1.370   5.062 -0.4237  1.5288 -1.5325
 2684SOL    HW2 4776   1.389   1.379   5.115 -0.5400 -2.2368 -0.2677
 2685SOL     OW 4777   0.091   0.134   4.607 -0.3881  0.6413 -0.4319
 2685SOL    HW1 4778   0.002   0.131   4.642  0.1260  0.9309  0.9623
 2685SOL    HW2 4779   0.148   0.128   4.684  0.8504 -1.7175 -1.4169
 2686SOL     OW 4780   0.691   3.550   3.847 -0.0090 -0.1707 -0.3163
 2686SOL    HW1 4781   0.702   3.610   3.920 -0.6145 -2.1238  1.4642
 2686SOL    HW2 4782   0.744   3.474   3.870 -0.8082 -1.1409 -1.5652
 2687SOL     OW 4783   3.659   1.000   2.881 -0.0181  0.7465  0.8975
 2687SOL    HW1 4784   3.662   0.904   2.874  0.2449  0.8135 -0.0856
 2687SOL    HW2 4785   3.703   1.019   2.964 -1.4107 -0.0548  1.8608
 2688SOL     OW 4786   0.871   1.940   3.778 -0.1166 -0.7680  0.2008
 2688SOL    HW1 4787   0.901   1.856   3.743  0.0165 -0.6337 -0.0095
 2688SOL    HW2 4788   0.831   1.918   3.862  2.9294 -0.6329  1.8011
 2689SOL     OW 4789   0.296   3.018   5.930 -0.3350  0.3124 -0.4738
 2689SOL    HW1 4790   0.236   3.004   5.857  1.0808 -1.6432 -1.3572
 2689SOL    HW2 4791   0.267   2.957   5.997 -0.1852  0.3680 -0.3585
 2690SOL     OW 4792   0.279   1.769   6.943  0.0435  0.1724  0.4912
 2690SOL    HW1 4793   0.276   1.684   6.987  2.9058 -0.5279 -0.4349
 2690SOL    HW2 4794   0.235   1.829   7.003 -0.7916 -1.6879  1.8236
 2691SOL     OW 4795   2.803   0.004   5.360 -0.4590 -0.0334  0.6364
 2691SOL    HW1 4796   2.855   0.084   5.351  0.1515 -0.5082 -0.0828
 2691SOL    HW2 4797   2.841  -0.057   5.298 -2.3260 -0.1568 -0.4586
 2692SOL     OW 4798   2.387   2.556   6.888  0.2531  0.3585 -0.1783
 2692SOL    HW1 4799   2.419   2.603   6.965 -1.1413 -0.6145  1.0307
 2692SOL    HW2 4800   2.314   2.609   6.856  0.6110  0.5792 -0.6448
 2693SOL     OW 4801   2.149   2.360   6.794  0.2389 -0.0266  0.0319
 2693SOL    HW1 4802   2.214   2.425   6.821 -0.1788  0.4792 -0.1679
 2693SOL    HW2 4803   2.067   2.390   6.833  0.0930 -0.5831  0.1593
 2694SOL     OW 4804   1.279   1.376   6.027 -0.4832 -0.3385  0.4022
 2694SOL    HW1 4805   1.302   1.454   5.977 -0.8881 -0.8773 -0.6458
 2694SOL    HW2 4806   1.196   1.399   6.071  0.3941  0.4960  1.6932
 2695SOL     OW 4807   2.374   1.380   6.073  0.2135 -0.3623 -0.3657
 2695SOL    HW1 4808   2.432   1.426   6.012  1.4908 -0.5772  0.6300
 2695SOL    HW2 4809   2.287   1.388   6.035  0.8825  0.0771 -1.8600
 2696SOL     OW 4810   0.430   1.232   7.062 -0.1530  0.0231  0.1876
 2696SOL    HW1 4811   0.452   1.281   6.983  2.2345  0.4088  1.0097
 2696SOL    HW2 4812   0.404   1.299   7.126  0.3864 -0.0203  0.4627
 2697SOL     OW 4813   0.924   1.381   7.644  0.5193  0.2344  0.2928
 2697SOL    HW1 4814   0.970   1.464   7.631  0.2935  0.3806  0.4075
 2697SOL    HW2 4815   0.915   1.344   7.556  0.7574  0.2583  0.2591
 2698SOL     OW 4816   3.634   3.358   6.743  0.1788 -0.2987  0.1450
 2698SOL    HW1 4817   3.591   3.336   6.826  0.0653 -1.2288 -0.1525
 2698SOL    HW2 4818   3.600   3.294   6.681 -0.7326  1.1818 -0.9482
 2699SOL     OW 4819   1.236   2.220   7.212 -0.1617 -0.4814  0.1934
 2699SOL    HW1 4820   1.266   2.145   7.263  1.6305  0.8670  1.2442
 2699SOL    HW2 4821   1.170   2.262   7.267  2.5022  1.5711  2.1060
 2700SOL     OW 4822   0.091   1.740   7.456  0.5932  0.6355 -0.0632
 2700SOL    HW1 4823   0.100   1.796   7.533 -3.4285 -1.4728  2.2110
 2700SOL    HW2 4824   0.145   1.663   7.475  1.6501  1.1957 -0.6511
 2701SOL     OW 4825   0.591   3.704   7.398  0.2863  0.3712 -0.0933
 2701SOL    HW1 4826   0.522   3.770   7.399 -0.0591  0.1085 -2.2579
 2701SOL    HW2 4827   0.546   3.621   7.386  0.9246  0.1328 -0.9646
 2702SOL     OW 4828   3.927   2.146   6.930  0.0700 -0.0586  0.0308
 2702SOL    HW1 4829   3.901   2.067   6.882  0.7211 -0.2541 -0.0112
 2702SOL    HW2 4830   4.000   2.117   6.985  0.2410  0.4924  0.0961
 2703SOL     OW 4831   0.730   1.331   5.783 -0.3765 -0.0814  0.1556
 2703SOL    HW1 4832   0.823   1.317   5.763 -0.2810 -1.1081  1.2325
 2703SOL    HW2 4833   0.723   1.426   5.793  0.6635 -0.0213  0.5211
 2704SOL     OW 4834   0.569   1.318   7.418  0.3165  0.4756  0.1794
 2704SOL    HW1 4835   0.498   1.254   7.421  0.1023  0.5126 -2.4295
 2704SOL    HW2 4836   0.532   1.398   7.456 -1.1987  0.6085 -1.4844
 2705SOL     OW 4837   3.659   2.271   7.358  0.2404  0.1601 -0.2394
 2705SOL    HW1 4838   3.722   2.213   7.400 -0.3008  0.0420  0.4183
 2705SOL    HW2 4839   3.583   2.215   7.340  0.2302  0.3516 -0.8295
 2706SOL     OW 4840   3.911   4.228   4.954  0.2119  0.0940  0.1944
 2706SOL    HW1 4841   3.873   4.230   5.042 -2.6724  0.7512 -0.9530
 2706SOL    HW2 4842   4.001   4.200   4.968 -1.2473 -4.4746  2.9813
 2707SOL     OW 4843   2.433   0.099   6.795 -0.1817  0.6784 -0.6578
 2707SOL    HW1 4844   2.527   0.112   6.777  0.5455 -2.3434  0.3924
 2707SOL    HW2 4845   2.415   0.154   6.871  0.9886  0.6424 -0.3317
 2708SOL     OW 4846   0.813   2.483   5.564  0.2397 -0.2843 -0.2570
 2708SOL    HW1 4847   0.719   2.492   5.554  0.2443  1.0933  0.6639
 2708SOL    HW2 4848   0.850   2.529   5.488  0.1854 -1.9474 -1.3257
 2709SOL     OW 4849   2.504   1.578   5.925  0.5889  0.1658 -0.3646
 2709SOL    HW1 4850   2.543   1.639   5.862 -0.0478  0.2908 -0.6383
 2709SOL    HW2 4851   2.516   1.622   6.010 -0.4065  0.9695 -0.6180
 2710SOL     OW 4852   3.875   3.292   7.644 -0.4354  0.1108 -1.2914
 2710SOL    HW1 4853   3.926   3.344   7.582  0.4453 -1.2182 -1.7263
 2710SOL    HW2 4854   3.923   3.301   7.727  0.8724 -1.5380 -1.8093
 2711SOL     OW 4855   4.126   0.617   6.136 -0.6082  0.9531  0.4940
 2711SOL    HW1 4856   4.044   0.584   6.098  1.6342 -3.1531 -1.4358
 2711SOL    HW2 4857   4.169   0.663   6.065 -0.7604  2.3102  1.2444
 2712SOL     OW 4858   0.294   1.517   6.593 -0.0149  0.8230 -0.1671
 2712SOL    HW1 4859   0.297   1.505   6.499  0.4305 -1.3048  0.0817
 2712SOL    HW2 4860   0.208   1.557   6.609 -1.2626 -1.2670 -1.2584
 2713SOL     OW 4861   1.375   1.396   6.637  0.2377 -0.2164 -0.0354
 2713SOL    HW1 4862   1.345   1.384   6.728 -0.4136  0.6545 -0.1100
 2713SOL    HW2 4863   1.375   1.491   6.626 -0.7351 -0.3390 -1.2769
 2714SOL     OW 4864   1.699   1.806   3.761 -0.1403 -0.0313  0.1090
 2714SOL    HW1 4865   1.619   1.822   3.710 -0.1526  0.8706  0.3999
 2714SOL    HW2 4866   1.676   1.831   3.850 -0.5353 -2.8115  0.8842
 2715SOL     OW 4867   2.246   2.230   7.450  0.3391  0.4931 -0.1139
 2715SOL    HW1 4868   2.300   2.163   7.491  0.9530  1.1010  0.0876
 2715SOL    HW2 4869   2.261   2.220   7.356  1.9898  1.6130 -0.0055
 2716SOL     OW 4870   4.185   0.583   7.263  1.0671 -0.2944  0.5138
 2716SOL    HW1 4871   4.150   0.526   7.331  3.5051 -2.9885 -0.2922
 2716SOL    HW2 4872   4.274   0.602   7.290  1.6674 -0.3557 -1.2667
 2717SOL     OW 4873   2.680   1.000   6.977  0.0164  0.5880 -0.0605
 2717SOL    HW1 4874   2.595   1.027   7.013  0.6195  1.3949  0.8291
 2717SOL    HW2 4875   2.680   1.033   6.887  0.4093  2.9987  0.7456
 2718SOL     OW 4876   1.483   0.650   5.530  0.5679 -0.2379 -0.0468
 2718SOL    HW1 4877   1.575   0.621   5.534  0.3066 -1.2639 -0.9518
 2718SOL    HW2 4878   1.463   0.676   5.620  1.2579 -1.5868  0.5276
 2719SOL     OW 4879   0.946   3.723   6.444  0.2099  0.2192 -0.4837
 2719SOL    HW1 4880   0.993   3.639   6.435 -0.2848 -0.0563 -0.5161
 2719SOL    HW2 4881   0.854   3.698   6.452  0.1126  0.7356  0.0256
 2720SOL     OW 4882   1.692   1.060   6.537  0.0071  0.1478  0.6807
 2720SOL    HW1 4883   1.685   1.075   6.631 -0.1010  0.5294  0.6134
 2720SOL    HW2 4884   1.616   1.106   6.500 -0.2722 -0.4769  0.4581
 2721SOL     OW 4885   3.421   2.645   5.226  0.4950 -0.0955  0.1513
 2721SOL    HW1 4886   3.364   2.625   5.152  0.3231 -0.7918  0.4627
 2721SOL    HW2 4887   3.441   2.738   5.217 -0.7899  0.1942  0.0956
 2722SOL     OW 4888   1.385   3.959   6.593  0.0190 -0.2800  0.5222
 2722SOL    HW1 4889   1.307   3.931   6.546 -0.2016  0.8017  0.2344
 2722SOL    HW2 4890   1.439   3.880   6.598 -0.5831 -0.7549 -0.2904
 2723SOL     OW 4891   2.613   1.118   6.170 -0.4757 -0.1387  0.8753
 2723SOL    HW1 4892   2.606   1.206   6.208  1.5128 -0.9821  3.5451
 2723SOL    HW2 4893   2.677   1.128   6.100  0.2555  0.4800  1.6027
 2724SOL     OW 4894   3.796   0.926   6.993  0.0828  0.4105  0.3633
 2724SOL    HW1 4895   3.739   0.852   7.015 -0.7385  0.7294 -0.6133
 2724SOL    HW2 4896   3.847   0.895   6.918  0.9099  0.2827  0.9599
 2725SOL     OW 4897   2.098   0.230   7.438  0.7392 -0.5282  0.1192
 2725SOL    HW1 4898   2.060   0.316   7.453  1.9988 -0.3584  2.9422
 2725SOL    HW2 4899   2.023   0.171   7.428 -0.1487  0.9074 -2.6105
 2726SOL     OW 4900   2.422   0.804   4.840  0.2949 -0.2425 -0.0434
 2726SOL    HW1 4901   2.415   0.746   4.764  0.9228 -1.4572  0.7833
 2726SOL    HW2 4902   2.491   0.764   4.894  0.0248  0.7106  1.0526
 2727SOL     OW 4903   2.041   2.165   5.916  0.8205  0.6238 -0.0103
 2727SOL    HW1 4904   1.978   2.186   5.984  0.6060 -0.7006  0.2385
 2727SOL    HW2 4905   2.098   2.242   5.910 -0.0413  1.3205  0.6454
 2728SOL     OW 4906   3.600   1.953   7.716  0.2668 -0.3384  0.2189
 2728SOL    HW1 4907   3.695   1.959   7.712  0.1731  1.2614 -0.6971
 2728SOL    HW2 4908   3.582   1.860   7.731  1.8997 -1.3375 -3.0610
 2729SOL     OW 4909   0.738   0.036   6.454 -0.3661  0.0747 -0.0463
 2729SOL    HW1 4910   0.764   0.111   6.508 -0.6665  0.1901 -0.0569
 2729SOL    HW2 4911   0.644   0.026   6.472  0.0286 -1.5016  1.4567
 2730SOL     OW 4912   2.385   1.061   7.696 -0.3419  0.2608 -0.2356
 2730SOL    HW1 4913   2.346   1.070   7.609 -0.9336  0.7477  0.0668
 2730SOL    HW2 4914   2.332   0.994   7.738  0.7268 -0.8894 -0.6631
 2731SOL     OW 4915   0.501   1.001   6.375  0.1488 -0.2225 -0.4019
 2731SOL    HW1 4916   0.445   1.077   6.360 -0.0909 -0.5529 -1.2394
 2731SOL    HW2 4917   0.469   0.963   6.456  2.0665  2.1570  1.6278
 2732SOL     OW 4918   3.847   2.505   7.650  0.2825 -0.4610 -0.5298
 2732SOL    HW1 4919   3.938   2.520   7.677 -0.9986  1.1776  3.6077
 2732SOL    HW2 4920   3.839   2.410   7.647  1.2470 -0.8388  3.3085
 2733SOL     OW 4921   2.128   1.093   7.015 -0.3499  0.3942  0.5157
 2733SOL    HW1 4922   2.150   1.158   7.081 -0.1661 -0.1322  0.9760
 2733SOL    HW2 4923   2.092   1.144   6.942  0.3349  1.0689  0.6341
 2734SOL     OW 4924   0.063   1.584   7.201 -0.3138 -0.1954 -0.3300
 2734SOL    HW1 4925   0.025   1.512   7.250  0.0023 -0.7539 -0.9008
 2734SOL    HW2 4926   0.116   1.631   7.265 -0.5557 -0.4433  0.0517
 2735SOL     OW 4927   1.345   4.192   6.458 -0.2306 -0.1267 -1.1582
 2735SOL    HW1 4928   1.369   4.112   6.504 -0.8247 -1.4433 -3.0225
 2735SOL    HW2 4929   1.250   4.187   6.448 -0.6510  2.0929  0.8898
 2736SOL     OW 4930   0.681   1.279   7.700  0.3976  0.1168  0.4138
 2736SOL    HW1 4931   0.761   1.327   7.678  0.2699  0.9656  1.6792
 2736SOL    HW2 4932   0.614   1.347   7.707 -0.5127 -0.6097 -0.8595
 2737SOL     OW 4933   0.699   0.677   7.455  0.0083 -0.2271  0.3613
 2737SOL    HW1 4934   0.706   0.581   7.455 -0.3903 -0.2677 -0.4656
 2737SOL    HW2 4935   0.652   0.697   7.536 -0.9367 -0.8311 -0.0125
 2738SOL     OW 4936   0.919   2.135   5.761 -0.6110 -0.2294 -0.3892
 2738SOL    HW1 4937   0.945   2.063   5.819 -0.5434 -0.0134 -0.1516
 2738SOL    HW2 4938   0.888   2.203   5.820 -0.1325  0.1562 -0.5791
 2739SOL     OW 4939   2.180   3.656   6.533 -0.5623  0.3082  0.4360
 2739SOL    HW1 4940   2.102   3.713   6.531 -0.4075  0.5419  1.0577
 2739SOL    HW2 4941   2.233   3.690   6.605  0.1015  0.1209  0.0404
 2740SOL     OW 4942   2.029   0.657   5.453  0.4035  0.0556 -0.5893
 2740SOL    HW1 4943   2.013   0.750   5.434  1.5371  0.9943  2.4063
 2740SOL    HW2 4944   2.124   0.647   5.446  0.3495 -0.7179 -0.3355
 2741SOL     OW 4945   2.579   0.847   6.189  0.6642 -0.2472  0.1330
 2741SOL    HW1 4946   2.573   0.943   6.185  1.6390 -0.2003 -2.1439
 2741SOL    HW2 4947   2.560   0.819   6.099  1.9223 -2.0716  0.3928
 2742SOL     OW 4948   0.749   0.203   6.893  0.7976  0.2612  0.4409
 2742SOL    HW1 4949   0.839   0.178   6.911  1.3262  3.4615  3.2637
 2742SOL    HW2 4950   0.753   0.295   6.868 -1.6942  0.6432  1.1250
 2743SOL     OW 4951   1.807   0.569   6.586  0.1261  0.5374  0.2412
 2743SOL    HW1 4952   1.776   0.651   6.623 -1.4509 -0.0226  0.2063
 2743SOL    HW2 4953   1.829   0.515   6.661  0.0905  0.5862  0.2864
 2744SOL     OW 4954   2.320   1.434   7.688 -0.0124 -0.2577 -0.1131
 2744SOL    HW1 4955   2.295   1.525   7.674 -0.9240 -0.8263 -3.0433
 2744SOL    HW2 4956   2.237   1.389   7.704  0.4497 -0.5887  1.5050
 2745SOL     OW 4957   3.486   0.882   6.453  0.3156  0.4467  0.1368
 2745SOL    HW1 4958   3.460   0.886   6.545 -0.3433  0.1321 -0.0316
 2745SOL    HW2 4959   3.436   0.952   6.411 -0.7992 -0.5987 -0.3109
 2746SOL     OW 4960   1.064   0.805   5.752 -0.1249 -0.4025  0.0893
 2746SOL    HW1 4961   0.981   0.834   5.713  0.2994  1.3511  0.4115
 2746SOL    HW2 4962   1.046   0.800   5.845  0.5917  1.9600  0.4310
 2747SOL     OW 4963   1.282   0.647   5.347  0.1445  0.0162 -0.3730
 2747SOL    HW1 4964   1.199   0.635   5.394  0.7953  0.7225  1.0334
 2747SOL    HW2 4965   1.340   0.687   5.412  1.4134  0.0759 -1.5068
 2748SOL     OW 4966   0.977   0.678   7.007  0.3455  0.0156  0.4453
 2748SOL    HW1 4967   1.017   0.656   6.923  0.1029  1.0049  0.0627
 2748SOL    HW2 4968   1.051   0.679   7.068  0.8845  1.5431 -0.2039
 2749SOL     OW 4969   1.881   3.359   5.897  0.0972  0.4464  0.2930
 2749SOL    HW1 4970   1.886   3.359   5.802 -0.1319 -2.2823  0.2157
 2749SOL    HW2 4971   1.792   3.330   5.917  0.1356  0.9870  1.3650
 2750SOL     OW 4972   3.455   3.815   7.400 -0.1655  0.4133 -0.5975
 2750SOL    HW1 4973   3.459   3.801   7.495 -0.8846 -0.1356 -0.6357
 2750SOL    HW2 4974   3.417   3.734   7.366 -1.4170  1.2196 -1.1872
 2751SOL     OW 4975   2.271   1.494   6.329 -0.1094 -0.0614 -0.1385
 2751SOL    HW1 4976   2.252   1.428   6.396 -0.1458  0.0180 -0.0709
 2751SOL    HW2 4977   2.290   1.443   6.250  1.7793 -0.2507  0.3851
 2752SOL     OW 4978   4.291   1.394   7.361 -0.2568  0.1960  0.7523
 2752SOL    HW1 4979   4.343   1.315   7.374 -0.0565 -0.2781 -2.1817
 2752SOL    HW2 4980   4.204   1.361   7.337 -0.8443  0.9402  1.7697
 2753SOL     OW 4981   0.692   1.975   5.775  0.2509  0.4307 -0.1982
 2753SOL    HW1 4982   0.635   1.926   5.715  1.2167 -1.2966  0.2314
 2753SOL    HW2 4983   0.765   2.003   5.721 -0.2803  1.3877 -0.4340
 2754SOL     OW 4984   0.557   0.731   7.698  0.0194  0.3113  0.3461
 2754SOL    HW1 4985   0.507   0.809   7.672  0.5240  0.6231  0.2967
 2754SOL    HW2 4986   0.490   0.669   7.728 -0.4899  0.3333 -0.6854
 2755SOL     OW 4987   1.587   0.271   5.871 -0.0615  0.3903 -0.0740
 2755SOL    HW1 4988   1.590   0.175   5.877  2.9239  0.3351 -0.8026
 2755SOL    HW2 4989   1.525   0.297   5.939 -1.3799 -2.0639 -0.2191
 2756SOL     OW 4990   3.738   1.670   6.895  0.4727  0.1393 -0.3984
 2756SOL    HW1 4991   3.644   1.661   6.876 -0.2928  0.9729  2.4726
 2756SOL    HW2 4992   3.775   1.585   6.874 -1.6300 -1.3984  1.5750
 2757SOL     OW 4993   3.782   0.969   6.387 -0.3306 -0.0869  0.6634
 2757SOL    HW1 4994   3.844   0.978   6.460  0.7778  0.3263 -0.3114
 2757SOL    HW2 4995   3.709   0.920   6.425 -0.6934  1.7881  2.6092
 2758SOL     OW 4996   1.208   1.523   7.127 -0.3405 -0.4653  0.1086
 2758SOL    HW1 4997   1.153   1.462   7.176 -1.3092  0.2998 -0.0061
 2758SOL    HW2 4998   1.148   1.569   7.070  0.3239  0.8026  0.3987
 2759SOL     OW 4999   0.719   0.162   7.701 -0.1673 -0.6014 -0.7195
 2759SOL    HW1 5000   0.674   0.228   7.753 -0.8470 -3.0960  2.2114
 2759SOL    HW2 5001   0.812   0.185   7.708 -0.4925  1.0015 -1.3278
 2760SOL     OW 5002   2.717   3.928   7.096  0.0967 -0.4413  0.4801
 2760SOL    HW1 5003   2.789   3.870   7.072  0.0359 -1.1594  1.9541
 2760SOL    HW2 5004   2.664   3.935   7.016  0.2962 -2.1329  0.1678
 2761SOL     OW 5005   4.030   2.272   5.446 -0.5308 -0.3553 -0.6700
 2761SOL    HW1 5006   3.965   2.324   5.399 -1.3852 -0.1257  0.6967
 2761SOL    HW2 5007   4.026   2.185   5.406  0.0356  0.2806 -2.1613
 2762SOL     OW 5008   2.158   3.393   6.589  0.4372  0.0906  0.5393
 2762SOL    HW1 5009   2.170   3.488   6.592 -0.2527  0.1967  0.1730
 2762SOL    HW2 5010   2.118   3.371   6.673  1.6766 -0.0521  1.1173
 2763SOL     OW 5011   2.666   1.994   5.974 -0.0315 -0.7616 -0.0399
 2763SOL    HW1 5012   2.715   2.073   5.996  0.4280 -1.8598  3.4160
 2763SOL    HW2 5013   2.726   1.942   5.922  0.7147 -0.0719  0.1119
 2764SOL     OW 5014   1.986   0.340   7.173 -0.3917 -0.3131  0.2564
 2764SOL    HW1 5015   1.997   0.404   7.243 -1.7779  0.2041  0.0313
 2764SOL    HW2 5016   2.018   0.258   7.210 -1.2571 -0.0894  1.5743
 2765SOL     OW 5017   1.785   2.640   4.983  0.3007  0.2511 -1.1066
 2765SOL    HW1 5018   1.724   2.569   5.003 -0.1726  0.8994 -0.1906
 2765SOL    HW2 5019   1.856   2.598   4.934  1.9691 -1.7006  2.5575
 2766SOL     OW 5020   1.053   0.403   6.519 -0.4888 -0.1448  0.3394
 2766SOL    HW1 5021   1.031   0.485   6.563  0.4689  0.3131  0.0025
 2766SOL    HW2 5022   1.102   0.430   6.441 -0.6856 -1.0160 -0.0973
 2767SOL     OW 5023   1.583   2.361   4.779  0.6059 -0.2560  0.1517
 2767SOL    HW1 5024   1.675   2.349   4.803  1.2996  1.8298 -1.1115
 2767SOL    HW2 5025   1.571   2.304   4.703  1.0127 -0.2135  0.0485
 2768SOL     OW 5026   4.054   4.183   7.643  0.3397 -0.3298  0.1770
 2768SOL    HW1 5027   4.111   4.255   7.616  0.1851 -0.1689  0.2852
 2768SOL    HW2 5028   3.974   4.225   7.675  0.4067 -0.5261  0.6198
 2769SOL     OW 5029   1.370   0.792   5.769  0.1822  0.3303  0.5737
 2769SOL    HW1 5030   1.384   0.715   5.823 -1.4592 -0.9672 -0.7643
 2769SOL    HW2 5031   1.276   0.808   5.773  0.2475  1.1336 -0.6560
 2770SOL     OW 5032   4.123   1.230   6.166 -0.3988 -0.1465 -0.0089
 2770SOL    HW1 5033   4.103   1.150   6.214  0.4404  0.4043  1.3164
 2770SOL    HW2 5034   4.162   1.289   6.231 -0.6158  1.1981 -1.0322
 2771SOL     OW 5035   2.143   1.714   7.399  0.3697  0.0827  0.3243
 2771SOL    HW1 5036   2.201   1.771   7.349  1.9814  0.4923  2.4968
 2771SOL    HW2 5037   2.057   1.726   7.359  0.9900  2.6917 -0.4194
 2772SOL     OW 5038   1.993   0.491   7.446 -0.0128 -0.2858 -0.6055
 2772SOL    HW1 5039   1.897   0.484   7.446  0.0206 -1.4843  1.0355
 2772SOL    HW2 5040   2.011   0.571   7.397 -1.9039  0.3941 -0.3042
 2773SOL     OW 5041   1.508   1.071   5.541 -0.1774 -0.4054 -0.1047
 2773SOL    HW1 5042   1.433   1.012   5.538 -0.6920  0.2294  0.1313
 2773SOL    HW2 5043   1.518   1.093   5.634 -1.0543  1.2192 -0.3757
 2774SOL     OW 5044   0.263   1.537   7.447  0.7526 -0.0992  0.2962
 2774SOL    HW1 5045   0.276   1.560   7.539 -0.0569  0.1899  0.3467
 2774SOL    HW2 5046   0.276   1.442   7.443  0.6656 -0.1284  0.7305
 2775SOL     OW 5047   0.908   1.038   7.402  0.1163  0.6307 -0.4100
 2775SOL    HW1 5048   0.886   0.985   7.325 -2.2197 -0.1358  0.6631
 2775SOL    HW2 5049   0.966   0.983   7.453  0.0861  0.3260 -0.6971
 2776SOL     OW 5050   0.345   0.342   7.490 -0.0398  0.3543  0.3154
 2776SOL    HW1 5051   0.282   0.324   7.559 -0.7769  1.5367 -0.0397
 2776SOL    HW2 5052   0.311   0.295   7.413  0.0011  0.2492  0.3609
 2777SOL     OW 5053   3.894   1.589   7.295 -0.2907 -0.5112 -0.3752
 2777SOL    HW1 5054   3.959   1.634   7.348 -0.3309  0.3726 -1.0438
 2777SOL    HW2 5055   3.872   1.652   7.226 -2.8128 -0.2316  0.5580
 2778SOL     OW 5056   0.789   0.467   6.824 -0.4369 -0.3186  0.3664
 2778SOL    HW1 5057   0.881   0.488   6.803 -0.3027 -0.1593  1.0896
 2778SOL    HW2 5058   0.738   0.518   6.761 -0.0264 -0.7648 -0.3497
 2779SOL     OW 5059   2.972   2.095   6.129  0.2535 -0.6194 -0.0826
 2779SOL    HW1 5060   2.959   2.186   6.103  0.7369 -0.4548  0.2315
 2779SOL    HW2 5061   3.057   2.094   6.173  0.0567 -1.1365  0.3065
 2780SOL     OW 5062   1.474   2.122   7.492  0.0998 -0.7805 -0.2876
 2780SOL    HW1 5063   1.544   2.060   7.512  1.2316  0.1167 -1.3645
 2780SOL    HW2 5064   1.461   2.170   7.574  1.1877 -0.5337 -0.2451
 2781SOL     OW 5065   0.119   1.260   5.625  0.2343  0.2792 -0.1635
 2781SOL    HW1 5066   0.165   1.185   5.662  0.1714  0.1946 -0.2569
 2781SOL    HW2 5067   0.184   1.331   5.627 -0.4003  0.8861  2.1124
 2782SOL     OW 5068   0.476   4.290   6.494 -0.4458 -0.2327  0.7100
 2782SOL    HW1 5069   0.434   4.297   6.408  0.5417  0.4547  0.2645
 2782SOL    HW2 5070   0.412   4.244   6.548 -1.5285  0.2734 -0.0972
 2783SOL     OW 5071   1.160   0.185   6.647  0.0665  1.0473  0.0922
 2783SOL    HW1 5072   1.249   0.155   6.632 -0.8559 -1.3532 -1.2184
 2783SOL    HW2 5073   1.146   0.254   6.583  0.6930  0.7522 -0.3708
 2784SOL     OW 5074   1.065   3.940   7.097  0.2425  0.3381 -0.5400
 2784SOL    HW1 5075   0.986   3.966   7.051  0.3017  0.7497 -0.4079
 2784SOL    HW2 5076   1.113   3.886   7.033 -0.7318 -0.9885 -0.1995
 2785SOL     OW 5077   3.346   3.468   6.507  0.0121  0.1615 -0.8503
 2785SOL    HW1 5078   3.383   3.390   6.549  0.2800  1.1384  0.7835
 2785SOL    HW2 5079   3.272   3.435   6.457  0.4749 -1.2266 -0.6631
 2786SOL     OW 5080   0.138   0.656   6.280  0.1283  0.5697  0.2832
 2786SOL    HW1 5081   0.113   0.582   6.336  0.3484  1.2043  1.2393
 2786SOL    HW2 5082   0.056   0.686   6.242  0.1458 -0.8197 -0.9920
 2787SOL     OW 5083   1.043   0.524   7.715 -0.3646 -0.1242  0.5743
 2787SOL    HW1 5084   0.964   0.473   7.733 -0.7082  0.0759 -0.3619
 2787SOL    HW2 5085   1.014   0.615   7.719  0.0557 -0.0153  1.3158
 2788SOL     OW 5086   1.431   1.151   6.515 -0.2559 -0.4817 -0.1718
 2788SOL    HW1 5087   1.415   1.236   6.555  0.8049  0.1444 -1.0278
 2788SOL    HW2 5088   1.352   1.101   6.532 -2.4393  1.8183 -2.6411
 2789SOL     OW 5089   2.368   0.972   6.743  0.3523  0.5682 -0.0018
 2789SOL    HW1 5090   2.371   0.887   6.700 -1.2101  0.6663 -0.3604
 2789SOL    HW2 5091   2.460   0.994   6.760  0.7738 -1.2723  0.2962
 2790SOL     OW 5092   3.470   2.227   5.179 -0.2006  0.0745  0.2024
 2790SOL    HW1 5093   3.525   2.158   5.216 -0.9347 -0.5075  0.2371
 2790SOL    HW2 5094   3.442   2.279   5.255  0.9174  0.8473  0.1038
 2791SOL     OW 5095   1.363   0.319   7.136  0.2103 -0.1383  0.7800
 2791SOL    HW1 5096   1.392   0.341   7.047 -0.2004 -2.9268 -0.1566
 2791SOL    HW2 5097   1.443   0.318   7.188  0.7431 -0.2807 -0.0167
 2792SOL     OW 5098   0.838   4.038   7.271 -0.7445  0.2137 -0.4911
 2792SOL    HW1 5099   0.886   4.106   7.319 -0.0824 -0.9975  0.6225
 2792SOL    HW2 5100   0.856   4.057   7.179  1.9347 -0.1864 -0.1368
 2793SOL     OW 5101   0.954   2.044   7.375  0.0373 -0.3431  0.4415
 2793SOL    HW1 5102   0.930   2.026   7.284 -1.0013 -0.4021  0.7129
 2793SOL    HW2 5103   1.042   2.008   7.384  0.5660  0.5205 -0.8023
 2794SOL     OW 5104   2.928   3.389   5.252 -0.0003  0.0861 -0.0917
 2794SOL    HW1 5105   2.967   3.466   5.295 -1.0738  0.3347  0.4728
 2794SOL    HW2 5106   2.883   3.425   5.176 -0.2118 -0.0249 -0.0199
 2795SOL     OW 5107   0.503   1.483   7.689 -0.0151 -0.1123  0.3072
 2795SOL    HW1 5108   0.420   1.529   7.674  0.2447  0.5149  0.7551
 2795SOL    HW2 5109   0.564   1.552   7.715  0.0124 -0.8610  2.4338
 2796SOL     OW 5110   1.476   2.875   2.400 -0.3300 -0.5867 -0.0487
 2796SOL    HW1 5111   1.394   2.909   2.437  0.6252  0.6012  1.0397
 2796SOL    HW2 5112   1.485   2.788   2.440 -1.1461 -0.8267 -0.3476
 2797SOL     OW 5113   1.369   1.177   7.182  0.1431  0.0749 -0.1352
 2797SOL    HW1 5114   1.295   1.157   7.240  1.1604 -0.3647  1.0762
 2797SOL    HW2 5115   1.351   1.127   7.102 -0.9150  0.0645  0.0957
 2798SOL     OW 5116   2.453   2.903   6.860  0.0750  0.3396  0.3689
 2798SOL    HW1 5117   2.492   2.984   6.829  2.0784  0.3609  2.5979
 2798SOL    HW2 5118   2.359   2.915   6.848  0.4764  1.8671 -1.7693
 2799SOL     OW 5119   0.230   2.424   7.156  0.0343 -0.5241 -0.1935
 2799SOL    HW1 5120   0.225   2.425   7.252 -0.0087 -0.5344 -0.1958
 2799SOL    HW2 5121   0.262   2.337   7.135  1.1952 -0.1343 -0.1282
 2800SOL     OW 5122   1.641   0.239   7.633 -0.0220 -0.0113  0.0171
 2800SOL    HW1 5123   1.594   0.302   7.578 -0.8507 -1.0066 -0.4392
 2800SOL    HW2 5124   1.732   0.268   7.630 -0.6893  2.6533  1.8472
 2801SOL     OW 5125   4.049   0.866   6.859 -0.3221 -0.3608  0.1109
 2801SOL    HW1 5126   4.035   0.833   6.948  0.2260 -0.9695 -0.0162
 2801SOL    HW2 5127   4.142   0.884   6.855 -0.2190 -0.9940 -0.5489
 2802SOL     OW 5128   2.669   0.115   7.649  0.3462 -0.0394  0.1265
 2802SOL    HW1 5129   2.637   0.025   7.646 -2.7771  0.9670 -0.4115
 2802SOL    HW2 5130   2.639   0.153   7.566  1.0293  1.6578  0.6291
 2803SOL     OW 5131   2.872   3.577   6.161  0.4356 -0.3097  0.0993
 2803SOL    HW1 5132   2.943   3.640   6.149  0.5133 -0.5120 -0.5377
 2803SOL    HW2 5133   2.889   3.509   6.096 -1.0809  0.3105 -1.0230
 2804SOL     OW 5134   0.965   0.635   6.687 -0.0326  0.5256  0.2175
 2804SOL    HW1 5135   1.052   0.654   6.722  0.7214  0.6513 -1.5888
 2804SOL    HW2 5136   0.945   0.709   6.630 -0.9439  0.0788 -0.0685
 2805SOL     OW 5137   4.026   3.058   6.031  0.5610  0.2040 -0.6976
 2805SOL    HW1 5138   4.102   3.015   6.070  0.2388 -0.5122 -0.8550
 2805SOL    HW2 5139   4.056   3.086   5.944  1.0353  1.0906 -0.2651
 2806SOL     OW 5140   0.317   2.162   7.440  0.1107 -0.4423  0.2159
 2806SOL    HW1 5141   0.230   2.178   7.405 -0.5804  0.0689  2.0280
 2806SOL    HW2 5142   0.376   2.206   7.379 -1.1391  1.7942  0.5150
 2807SOL     OW 5143   4.264   0.515   7.640 -0.7408 -0.0072 -0.6095
 2807SOL    HW1 5144   4.193   0.576   7.660  0.7053  1.1800  1.3208
 2807SOL    HW2 5145   4.338   0.573   7.617  0.9178 -0.8717  2.0594
 2808SOL     OW 5146   2.331   0.511   7.473  0.1271  0.0760 -0.1198
 2808SOL    HW1 5147   2.246   0.467   7.468  0.3513 -0.4030  0.1659
 2808SOL    HW2 5148   2.319   0.593   7.427 -0.7969  0.4956  0.8380
 2809SOL     OW 5149   0.410   0.174   5.913  0.0808  0.4907 -0.2620
 2809SOL    HW1 5150   0.482   0.111   5.905  1.0558  1.6125 -0.6078
 2809SOL    HW2 5151   0.348   0.148   5.845 -0.3604 -1.1146  0.7113
 2810SOL     OW 5152   1.695   0.134   6.673 -0.0540 -0.5087  0.2341
 2810SOL    HW1 5153   1.708   0.078   6.750  0.8173 -0.1567  0.3506
 2810SOL    HW2 5154   1.783   0.159   6.646 -0.4149  2.4715  1.4244
 2811SOL     OW 5155   1.486   1.427   7.176  0.0207  0.7368  0.6078
 2811SOL    HW1 5156   1.396   1.460   7.179 -0.9011 -1.1499 -2.1341
 2811SOL    HW2 5157   1.478   1.335   7.200  1.3878  0.7328  1.1468
 2812SOL     OW 5158   1.398   1.658   6.594  0.0831 -0.2159  0.2002
 2812SOL    HW1 5159   1.443   1.668   6.510 -1.4799 -0.6443 -0.7299
 2812SOL    HW2 5160   1.307   1.679   6.575 -0.3774 -0.7267  1.7094
 2813SOL     OW 5161   4.278   0.936   6.123 -0.3241 -0.2793 -0.0615
 2813SOL    HW1 5162   4.233   0.920   6.206 -0.8472  1.0898 -0.0579
 2813SOL    HW2 5163   4.209   0.958   6.062  0.2042  0.5139 -0.3949
 2814SOL     OW 5164   2.962   0.599   5.168  0.1160  0.4016 -0.2553
 2814SOL    HW1 5165   2.869   0.586   5.186  0.4901 -1.1435  0.7057
 2814SOL    HW2 5166   2.990   0.663   5.233  0.0796 -0.4045  0.5695
 2815SOL     OW 5167   1.902   0.059   5.788  0.1884  0.5871 -0.1579
 2815SOL    HW1 5168   1.859  -0.027   5.785  2.5324 -0.7989  2.2400
 2815SOL    HW2 5169   1.849   0.110   5.849 -0.1818  0.2128 -0.1601
 2816SOL     OW 5170   2.144   1.007   4.638 -0.1093  0.6836  0.0407
 2816SOL    HW1 5171   2.127   0.964   4.554 -0.7644 -0.4121  0.7245
 2816SOL    HW2 5172   2.064   1.057   4.655 -0.7664 -0.6049  0.9040
 2817SOL     OW 5173   1.921   2.515   6.888 -0.1041 -0.1241  0.5726
 2817SOL    HW1 5174   1.900   2.494   6.979 -1.6959  1.8175  0.7394
 2817SOL    HW2 5175   1.852   2.472   6.838 -1.6190  1.9766  0.6883
 2818SOL     OW 5176   0.150   1.688   6.044 -0.5132 -0.3040  0.4747
 2818SOL    HW1 5177   0.119   1.759   6.100  0.2753  0.2414  0.2407
 2818SOL    HW2 5178   0.089   1.688   5.970  0.9116  1.8371 -0.7941
 2819SOL     OW 5179   2.244   1.306   7.129  0.4473  0.4259 -0.4635
 2819SOL    HW1 5180   2.266   1.342   7.043 -1.1250  0.3246 -0.9339
 2819SOL    HW2 5181   2.268   1.375   7.191 -0.6662  1.5244 -1.2001
 2820SOL     OW 5182   1.726   1.586   7.204 -0.2012 -0.3243 -0.2545
 2820SOL    HW1 5183   1.791   1.542   7.149  0.7585 -0.8973  1.2860
 2820SOL    HW2 5184   1.646   1.533   7.194  1.0732 -2.9217  2.0254
 2821SOL     OW 5185   2.687   0.555   5.254 -0.1861 -0.1189 -0.8410
 2821SOL    HW1 5186   2.638   0.595   5.326 -0.3270  0.9174 -1.4876
 2821SOL    HW2 5187   2.678   0.461   5.267 -0.9642  0.0608 -0.0189
 2822SOL     OW 5188   1.684   4.255   6.883 -0.2552  0.0436 -0.2615
 2822SOL    HW1 5189   1.706   4.223   6.971  0.9525  0.4933 -0.3763
 2822SOL    HW2 5190   1.591   4.236   6.873 -1.2070  2.6023  2.2896
 2823SOL     OW 5191   1.142   0.881   7.656 -0.4670 -0.1714  0.2168
 2823SOL    HW1 5192   1.068   0.831   7.691 -0.2736 -0.1666  0.6521
 2823SOL    HW2 5193   1.218   0.842   7.699 -0.2117 -0.2091 -0.2656
 2824SOL     OW 5194   0.865   2.598   5.812 -0.2853  0.3802  0.4826
 2824SOL    HW1 5195   0.782   2.644   5.821 -0.3481  0.1614  1.0506
 2824SOL    HW2 5196   0.862   2.560   5.724  0.2465  2.3845 -0.4542
 2825SOL     OW 5197   2.275   1.502   5.744 -0.1173  0.5367 -0.0303
 2825SOL    HW1 5198   2.354   1.517   5.796  0.3169  2.6690 -1.1958
 2825SOL    HW2 5199   2.272   1.576   5.683 -1.6896 -0.8087 -1.6807
 2826SOL     OW 5200   1.608   0.915   5.970  0.1831 -0.1594  0.2619
 2826SOL    HW1 5201   1.660   0.935   6.047 -0.1058 -0.3617  0.5097
 2826SOL    HW2 5202   1.665   0.859   5.916  0.4248  0.0758  0.2725
 2827SOL     OW 5203   0.774   2.409   6.149 -0.1117 -0.0208  0.0494
 2827SOL    HW1 5204   0.868   2.417   6.165 -0.1562 -1.8718  1.6788
 2827SOL    HW2 5205   0.733   2.446   6.227 -0.5672 -2.6837  1.1736
 2828SOL     OW 5206   1.157   0.207   7.449 -0.0052  0.4727 -0.0236
 2828SOL    HW1 5207   1.237   0.179   7.404  0.6552  1.3372  0.5766
 2828SOL    HW2 5208   1.086   0.182   7.389  0.7785  0.6972 -1.0836
 2829SOL     OW 5209   4.093   3.564   7.174  0.2582 -0.1603 -0.0162
 2829SOL    HW1 5210   4.156   3.586   7.106  0.3928 -1.0117 -0.1875
 2829SOL    HW2 5211   4.132   3.490   7.220  0.9062  1.3576  2.0225
 2830SOL     OW 5212   2.349   1.920   7.429 -0.6363 -0.1856 -0.3604
 2830SOL    HW1 5213   2.405   1.844   7.412 -0.5139 -0.1500 -0.1173
 2830SOL    HW2 5214   2.378   1.986   7.367 -0.5174 -0.2241 -0.3459
 2831SOL     OW 5215   0.309   1.697   7.686 -0.4219  0.0594  0.2531
 2831SOL    HW1 5216   0.392   1.734   7.717 -1.0233  0.3034  1.7055
 2831SOL    HW2 5217   0.245   1.767   7.704 -1.0703 -0.4691  0.0121
 2832SOL     OW 5218   1.386   3.546   5.741 -0.0352  0.4433 -0.2978
 2832SOL    HW1 5219   1.420   3.575   5.826 -0.9096  0.1459  0.1728
 2832SOL    HW2 5220   1.381   3.626   5.689 -0.4277  0.7967  0.2724
 2833SOL     OW 5221   0.603   1.239   5.529 -0.1852 -0.1063 -0.1413
 2833SOL    HW1 5222   0.629   1.279   5.612 -1.1947  0.3860 -0.0459
 2833SOL    HW2 5223   0.550   1.164   5.554 -3.1333  1.7711 -0.2496
 2834SOL     OW 5224   1.894   0.405   6.775 -0.0158 -0.6169  0.1768
 2834SOL    HW1 5225   1.970   0.422   6.831 -0.4379 -2.2922  1.3491
 2834SOL    HW2 5226   1.851   0.331   6.817 -1.2792 -0.8707 -1.5028
 2835SOL     OW 5227   0.978   1.749   7.496  0.1198 -0.4426  0.2576
 2835SOL    HW1 5228   1.003   1.678   7.556  0.8106 -0.7642 -0.4050
 2835SOL    HW2 5229   1.047   1.751   7.430  0.6467  1.4952  0.7891
 2836SOL     OW 5230   3.938   2.411   6.440  0.3865  0.8365  0.7533
 2836SOL    HW1 5231   3.861   2.394   6.494 -0.1278  1.2905  0.1732
 2836SOL    HW2 5232   3.907   2.471   6.372  1.1057  0.5387  0.1538
 2837SOL     OW 5233   2.291   3.680   6.105 -0.1622  0.5594  0.1231
 2837SOL    HW1 5234   2.230   3.635   6.046  1.0881 -0.4154 -0.4486
 2837SOL    HW2 5235   2.288   3.771   6.076  1.4351 -0.0946 -2.4294
 2838SOL     OW 5236   0.484   1.565   5.389 -0.7304  0.4502  0.2723
 2838SOL    HW1 5237   0.499   1.603   5.303  0.5846 -0.4520  0.0656
 2838SOL    HW2 5238   0.521   1.477   5.383  0.2412  0.6832  2.0169
 2839SOL     OW 5239   1.491   1.658   7.430  0.4302 -0.2983 -0.0111
 2839SOL    HW1 5240   1.563   1.628   7.374 -0.6095  0.8694 -2.0952
 2839SOL    HW2 5241   1.507   1.752   7.441 -1.4373  0.2998 -1.7213
 2840SOL     OW 5242   3.749   3.789   7.411  0.2408 -0.2146  0.6982
 2840SOL    HW1 5243   3.657   3.815   7.406 -0.3079 -2.1351  0.2826
 2840SOL    HW2 5244   3.763   3.766   7.503 -0.2059 -1.6007  0.4404
 2841SOL     OW 5245   0.767   0.997   7.670  0.2089  0.6173  0.2437
 2841SOL    HW1 5246   0.697   0.973   7.609  0.7228  0.3002 -0.2268
 2841SOL    HW2 5247   0.751   1.089   7.689 -0.5820  0.4422  0.4659
 2842SOL     OW 5248   3.425   1.403   6.522 -0.2860  0.4118 -0.7978
 2842SOL    HW1 5249   3.384   1.446   6.448 -0.3398  0.2281 -0.8759
 2842SOL    HW2 5250   3.367   1.329   6.542  0.5693 -0.4958 -1.5971
 2843SOL     OW 5251   0.243   1.172   6.642  0.1652  0.1451  0.1487
 2843SOL    HW1 5252   0.183   1.237   6.678 -0.5016 -0.6318  0.4837
 2843SOL    HW2 5253   0.326   1.187   6.687 -0.4341 -0.2773  1.4360
 2844SOL     OW 5254   0.666   3.874   6.713  0.5794  0.0146  0.4086
 2844SOL    HW1 5255   0.590   3.865   6.771  0.9245  2.2326  1.3315
 2844SOL    HW2 5256   0.737   3.829   6.759  0.1496 -0.8844  0.2058
 2845SOL     OW 5257   3.431   2.510   6.164 -0.3874  0.3156  0.0282
 2845SOL    HW1 5258   3.473   2.515   6.249 -2.3262  0.5568  1.0302
 2845SOL    HW2 5259   3.463   2.587   6.117  0.8661  0.0618  0.4344
 2846SOL     OW 5260   0.290   1.530   7.052 -0.1420 -0.7448  0.7619
 2846SOL    HW1 5261   0.208   1.512   7.098 -0.6859 -0.4875 -0.0790
 2846SOL    HW2 5262   0.358   1.523   7.119 -0.9166 -0.3735  1.5970
 2847SOL     OW 5263   0.623   0.806   7.203  0.4950  0.2211 -0.3432
 2847SOL    HW1 5264   0.620   0.750   7.126  1.1529 -0.3679  0.0500
 2847SOL    HW2 5265   0.654   0.749   7.273  1.5100  1.1531 -0.0095
 2848SOL     OW 5266   0.248   2.450   7.412 -0.6633  0.0731 -0.1105
 2848SOL    HW1 5267   0.217   2.475   7.499 -1.6323  3.0423 -1.1972
 2848SOL    HW2 5268   0.337   2.484   7.408 -0.3012 -0.8256 -0.0313
 2849SOL     OW 5269   1.553   0.873   6.370  0.8819  0.0161 -0.2801
 2849SOL    HW1 5270   1.465   0.896   6.399  0.2083 -1.3965 -1.1257
 2849SOL    HW2 5271   1.611   0.919   6.431 -0.3989  1.7694 -0.3123
 2850SOL     OW 5272   1.626   1.893   7.428 -0.1271 -0.4335  0.0400
 2850SOL    HW1 5273   1.620   1.922   7.337 -0.9920  0.7190  0.4473
 2850SOL    HW2 5274   1.718   1.868   7.438  0.4302  1.2051 -0.6350
 2851SOL     OW 5275   0.588   0.973   7.475 -0.2544 -0.2942  0.2536
 2851SOL    HW1 5276   0.676   0.953   7.443 -0.0191  0.9003  0.1030
 2851SOL    HW2 5277   0.539   0.997   7.396  0.0349  1.6107  0.5954
 2852SOL     OW 5278   4.128   1.112   7.522 -0.1061  0.2137  0.4356
 2852SOL    HW1 5279   4.180   1.052   7.576  0.4791 -1.2549 -1.6170
 2852SOL    HW2 5280   4.049   1.129   7.574  0.0367 -1.7980  1.4165
 2853SOL     OW 5281   3.745   0.711   7.716 -0.9901  0.3318  0.6739
 2853SOL    HW1 5282   3.788   0.710   7.630 -0.1996  1.2976  1.0377
 2853SOL    HW2 5283   3.785   0.785   7.762  1.6352 -2.5664  3.4640
 2854SOL     OW 5284   2.996   1.139   6.881  0.2821 -0.1355  0.1540
 2854SOL    HW1 5285   2.971   1.158   6.971  0.5810  0.8943  0.0291
 2854SOL    HW2 5286   2.916   1.103   6.841  0.5967 -2.2141  1.2450
 2855SOL     OW 5287   0.623   2.351   6.568  0.2493  0.1426 -0.5561
 2855SOL    HW1 5288   0.558   2.291   6.532  0.2761  0.8275 -1.8004
 2855SOL    HW2 5289   0.659   2.396   6.491  0.2319  1.7349  0.3421
 2856SOL     OW 5290   1.416   0.133   6.553  0.4011  0.3968  0.0255
 2856SOL    HW1 5291   1.501   0.135   6.598  0.5398  0.3591 -0.2322
 2856SOL    HW2 5292   1.411   0.046   6.514  0.3759  0.5030 -0.2108
 2857SOL     OW 5293   1.394   0.129   7.668  0.1940  0.2231  0.2003
 2857SOL    HW1 5294   1.354   0.214   7.683  3.3800  2.0681 -0.7097
 2857SOL    HW2 5295   1.488   0.146   7.673  0.9614 -3.3563  0.3541
 2858SOL     OW 5296   1.807   2.262   4.909 -0.0897  0.0869  0.6594
 2858SOL    HW1 5297   1.843   2.301   4.989 -2.3932  0.4786  1.5661
 2858SOL    HW2 5298   1.779   2.175   4.936  1.3289 -0.7378 -0.3763
 2859SOL     OW 5299   1.019   2.982   6.771  0.0982  0.2891  0.2905
 2859SOL    HW1 5300   1.068   3.013   6.847  1.1932  0.7874 -0.5799
 2859SOL    HW2 5301   0.939   3.035   6.771  0.1661  0.3994  1.0041
 2860SOL     OW 5302   3.982   1.668   7.691 -0.4109  0.7361 -0.1671
 2860SOL    HW1 5303   4.058   1.626   7.651 -0.0644  0.0732  1.1501
 2860SOL    HW2 5304   3.922   1.596   7.711 -1.0415  1.1715 -0.4616
 2861SOL     OW 5305   1.922   0.289   7.685  0.0784  0.1398  0.1829
 2861SOL    HW1 5306   1.923   0.384   7.681  0.5018  0.1135 -0.2937
 2861SOL    HW2 5307   2.010   0.265   7.713  0.2563 -0.1542 -0.6211
 2862SOL     OW 5308   1.032   0.161   7.703  0.7125  0.5442  1.0884
 2862SOL    HW1 5309   1.038   0.066   7.717 -1.5788  0.1628 -0.0077
 2862SOL    HW2 5310   1.065   0.174   7.614  3.1591  1.1689  1.9973
 2863SOL     OW 5311   3.520   1.017   7.678 -0.4853 -0.1592 -0.6623
 2863SOL    HW1 5312   3.499   0.956   7.608 -0.7168 -0.8631  0.0080
 2863SOL    HW2 5313   3.540   0.962   7.753  1.7493  0.5375 -0.6902
 2864SOL     OW 5314   0.833   1.314   7.397 -0.0579 -0.3057  0.1133
 2864SOL    HW1 5315   0.848   1.221   7.415  0.3266 -0.1839  0.4216
 2864SOL    HW2 5316   0.737   1.323   7.398 -0.1010 -0.7103  0.0002
 2865SOL     OW 5317   0.178   0.731   7.696  0.7905  0.3252  0.1217
 2865SOL    HW1 5318   0.223   0.766   7.620 -0.5174  2.2284  0.1651
 2865SOL    HW2 5319   0.243   0.674   7.738  2.8503  2.2590 -0.2741
 2866SOL     OW 5320   1.992   2.162   7.339  0.1562 -0.3140  0.3665
 2866SOL    HW1 5321   2.033   2.202   7.416 -0.6521  0.6002  0.3314
 2866SOL    HW2 5322   1.917   2.114   7.375 -0.6062  0.6528  0.0879
 2867SOL     OW 5323   0.746   0.514   7.726 -0.0992  0.0523  0.3241
 2867SOL    HW1 5324   0.678   0.581   7.723 -0.7545 -0.5944  0.6437
 2867SOL    HW2 5325   0.729   0.459   7.649 -0.1004 -0.2638  0.5497
 2868SOL     OW 5326   0.454   1.048   7.683  0.1653  0.3338  0.2297
 2868SOL    HW1 5327   0.501   1.029   7.603  1.6272 -0.6939  1.2824
 2868SOL    HW2 5328   0.514   1.101   7.735 -1.5551  2.8496 -0.1519
 2869SOL     OW 5329   0.869   1.856   7.701  0.5828 -0.1407 -0.7528
 2869SOL    HW1 5330   0.938   1.845   7.767 -0.2473 -1.2174 -0.0394
 2869SOL    HW2 5331   0.907   1.820   7.621  0.4335 -1.9123 -0.0670
 2870SOL     OW 5332   0.808   2.100   7.597 -0.0548 -0.4430 -0.4997
 2870SOL    HW1 5333   0.822   2.020   7.647  0.4900  0.3688  0.6690
 2870SOL    HW2 5334   0.856   2.085   7.515 -0.2651 -1.4463 -0.4559
 2871SOL     OW 5335   2.570   4.182   7.684  0.1180  0.2247  0.0505
 2871SOL    HW1 5336   2.516   4.108   7.711 -0.2085  0.6097  0.4550
 2871SOL    HW2 5337   2.660   4.149   7.691  0.1478  0.6640  2.8564
 2872SOL     OW 5338   1.091   0.303   7.126  0.3212  0.3007  0.1472
 2872SOL    HW1 5339   1.187   0.304   7.129  0.3287  1.1302 -0.1895
 2872SOL    HW2 5340   1.065   0.385   7.167 -0.2016  0.7752 -1.0870
 2873SOL     OW 5341   0.122   1.889   7.702  0.0333 -0.1292 -0.0380
 2873SOL    HW1 5342   0.159   1.976   7.720 -0.3092  0.2544 -1.1226
 2873SOL    HW2 5343   0.029   1.906   7.685 -0.0272 -0.7087 -0.2975
 2874SOL     OW 5344   2.356   0.744   7.329 -0.0585  0.3367  0.0674
 2874SOL    HW1 5345   2.400   0.737   7.244  0.6384  0.7533  0.3884
 2874SOL    HW2 5346   2.361   0.837   7.352  1.9955 -0.1098  1.7217
 2875SOL     OW 5347   1.302   1.386   7.690  0.0616  0.3979 -0.2089
 2875SOL    HW1 5348   1.233   1.321   7.702  0.4487 -0.2721 -1.4207
 2875SOL    HW2 5349   1.380   1.334   7.668  0.9989  1.1249  1.1728
 2876SOL     OW 5350   2.383   0.738   6.608  0.6463  0.1724  0.1410
 2876SOL    HW1 5351   2.365   0.647   6.588 -0.6105  0.6827 -1.2667
 2876SOL    HW2 5352   2.445   0.766   6.540 -0.0392  0.6981 -0.2942
 2877SOL     OW 5353   1.233   0.925   7.406 -0.1585 -0.5886 -0.2413
 2877SOL    HW1 5354   1.197   0.897   7.490 -0.1274 -1.7362 -0.5993
 2877SOL    HW2 5355   1.320   0.886   7.403 -0.9941 -2.5150 -1.7653
 2878SOL     OW 5356   3.953   1.233   7.707 -0.0126  0.3910  0.1184
 2878SOL    HW1 5357   3.974   1.309   7.761  1.5730  1.4525 -1.8504
 2878SOL    HW2 5358   3.865   1.253   7.673  0.1792  1.1123  0.0218
 2879SOL     OW 5359   0.839   4.030   6.973 -0.2381  0.5014  0.1198
 2879SOL    HW1 5360   0.863   3.969   6.903  0.4510  0.8205  0.0695
 2879SOL    HW2 5361   0.796   4.103   6.927 -0.0793  0.5588  0.0618
 2880SOL     OW 5362   0.187   1.092   7.676 -0.3428  0.3956 -0.4340
 2880SOL    HW1 5363   0.181   1.178   7.718 -1.1432  0.6081 -0.9531
 2880SOL    HW2 5364   0.278   1.066   7.686  0.2316  1.9066 -1.4032
 2881SOL     OW 5365   0.053   1.104   7.408 -0.2080  0.5494 -0.1855
 2881SOL    HW1 5366  -0.039   1.122   7.426 -0.7402  0.2285 -2.3537
 2881SOL    HW2 5367   0.069   1.019   7.450 -0.1688  1.6828  2.2793
 2882SOL     OW 5368   2.062   1.708   6.274  0.4927  0.1726  0.0086
 2882SOL    HW1 5369   2.085   1.617   6.253 -0.6762 -0.4525  1.2623
 2882SOL    HW2 5370   2.146   1.752   6.285  1.1240 -1.2192  1.1811
 2883SOL     OW 5371   0.932   0.148   7.296 -0.3353 -0.0264  0.1502
 2883SOL    HW1 5372   0.854   0.129   7.244 -1.4670  1.4890  1.1783
 2883SOL    HW2 5373   0.990   0.196   7.236 -1.9532  2.3926  0.4020
 2884SOL     OW 5374   1.948   1.663   6.605 -0.4602 -0.1435  0.7095
 2884SOL    HW1 5375   1.994   1.614   6.537  1.1795  0.8512  1.0593
 2884SOL    HW2 5376   1.896   1.727   6.556  1.0375  0.8507  0.3359
 2885SOL     OW 5377   4.140   1.675   7.435 -0.3731  0.3182 -0.3401
 2885SOL    HW1 5378   4.129   1.592   7.482 -0.0834 -0.1921 -1.1465
 2885SOL    HW2 5379   4.234   1.680   7.418 -0.2723  1.2259  0.4226
 2886SOL     OW 5380   3.985   4.052   6.933 -0.3172  0.0144  0.6624
 2886SOL    HW1 5381   4.011   4.014   7.017 -2.4979 -0.6859  1.0875
 2886SOL    HW2 5382   3.899   4.092   6.950 -0.5392  0.3616 -1.0871
 2887SOL     OW 5383   0.416   0.562   7.343  0.0496  0.4296  0.0983
 2887SOL    HW1 5384   0.495   0.553   7.289 -0.8230 -0.4711 -1.0799
 2887SOL    HW2 5385   0.394   0.473   7.369  1.4293  0.9643  3.5164
 2888SOL     OW 5386   2.415   1.086   7.076 -0.3235 -0.4501 -0.2577
 2888SOL    HW1 5387   2.354   1.159   7.069  0.2541 -0.0345 -1.1650
 2888SOL    HW2 5388   2.483   1.117   7.136 -1.1160 -1.0115  0.9640
 2889SOL     OW 5389   1.155   1.170   7.667  0.1696 -0.6743  0.0364
 2889SOL    HW1 5390   1.146   1.079   7.639 -0.3763 -0.6868  0.2539
 2889SOL    HW2 5391   1.068   1.196   7.696 -0.0532  0.4000 -1.4670
 2890SOL     OW 5392   1.540   1.748   6.818  0.5335 -0.0327 -0.0561
 2890SOL    HW1 5393   1.542   1.844   6.819  0.6005 -0.0368  0.6813
 2890SOL    HW2 5394   1.518   1.725   6.728 -2.0795  0.7173  0.3082
 2891SOL     OW 5395   2.900   4.135   7.018  0.4249  0.0248  0.4269
 2891SOL    HW1 5396   2.842   4.127   7.094  0.7012 -0.2723  0.6076
 2891SOL    HW2 5397   2.840   4.133   6.942  0.1306  0.5541  0.6397
 2892SOL     OW 5398   3.931   0.954   7.687  0.2807 -0.2282  0.0067
 2892SOL    HW1 5399   3.888   0.974   7.604 -0.0814  0.5803  0.3790
 2892SOL    HW2 5400   3.921   1.034   7.739 -0.4624 -1.0858  1.2364
 2893SOL     OW 5401   1.299   1.889   6.918  0.3693  0.5493  0.2829
 2893SOL    HW1 5402   1.221   1.836   6.938 -0.2255  0.9060 -0.9826
 2893SOL    HW2 5403   1.351   1.834   6.859  1.8557 -0.2937  2.2670
 2894SOL     OW 5404   1.357   2.670   1.153  0.1906  0.1043 -0.0838
 2894SOL    HW1 5405   1.355   2.753   1.201 -1.1570 -0.0473  0.1921
 2894SOL    HW2 5406   1.438   2.671   1.104  0.9626  0.8788  1.1635
 2895SOL     OW 5407   0.121   2.918   1.184 -0.4364 -0.2912 -0.0405
 2895SOL    HW1 5408   0.208   2.930   1.221 -0.7832  1.1876  0.3641
 2895SOL    HW2 5409   0.137   2.884   1.096  0.6507  1.4604 -0.5704
 2896SOL     OW 5410   1.312   2.282   1.101 -0.4592  0.6522  0.2881
 2896SOL    HW1 5411   1.372   2.345   1.062  0.1750 -0.0888  0.0496
 2896SOL    HW2 5412   1.359   2.246   1.176 -0.4305 -0.2469 -0.1530
 2897SOL     OW 5413   2.206   2.686   2.181 -0.6299  0.3118  0.4354
 2897SOL    HW1 5414   2.280   2.724   2.228 -0.5205  0.1749  0.3748
 2897SOL    HW2 5415   2.165   2.628   2.246  1.1310 -2.0465 -0.3812
 2898SOL     OW 5416   0.505   2.556   0.691 -0.5068  0.1840 -0.5789
 2898SOL    HW1 5417   0.575   2.619   0.672 -0.6392  0.3102 -0.6487
 2898SOL    HW2 5418   0.425   2.608   0.686 -0.5747  0.1212 -0.1040
 2899SOL     OW 5419   0.684   4.091   2.655 -0.2334  0.1670  0.1777
 2899SOL    HW1 5420   0.773   4.060   2.640 -0.1375  0.5885 -0.1616
 2899SOL    HW2 5421   0.633   4.051   2.585 -0.7766 -1.9024  1.6512
 2900SOL     OW 5422   4.075   4.082   1.449  0.7669  0.0455 -0.1368
 2900SOL    HW1 5423   4.096   4.019   1.381 -1.2749 -0.4365 -0.3923
 2900SOL    HW2 5424   3.979   4.089   1.447  0.5202 -0.5135  3.1353
 2901SOL     OW 5425   0.961   2.165   1.763 -0.1848 -0.0867  0.3391
 2901SOL    HW1 5426   1.012   2.084   1.757  0.3214  0.0711  2.0201
 2901SOL    HW2 5427   0.870   2.135   1.763 -0.0085 -0.6486  0.7473
 2902SOL     OW 5428   3.075   2.405   1.739 -0.2708  0.1160  0.0337
 2902SOL    HW1 5429   3.164   2.374   1.722 -0.3905  0.3005 -0.9907
 2902SOL    HW2 5430   3.049   2.450   1.658 -0.8604  1.0826  0.7366
 2903SOL     OW 5431   0.419   3.345   0.685 -0.5864  0.0528 -0.1949
 2903SOL    HW1 5432   0.441   3.437   0.666  0.0481 -0.3608 -1.6252
 2903SOL    HW2 5433   0.360   3.350   0.760 -1.0509  1.6693 -0.6122
 2904SOL     OW 5434   0.365   3.071   0.648 -0.1069  0.0676  0.2889
 2904SOL    HW1 5435   0.422   3.013   0.598 -1.1089 -1.0312  0.3806
 2904SOL    HW2 5436   0.404   3.158   0.637  0.6278 -0.3990 -1.0286
 2905SOL     OW 5437   1.961   1.551   1.194 -0.3218 -0.0490  0.7413
 2905SOL    HW1 5438   1.870   1.559   1.223 -1.0163  1.1956 -1.5937
 2905SOL    HW2 5439   1.987   1.640   1.170  0.8274 -0.6882 -0.5187
 2906SOL     OW 5440   3.685   2.981   2.453 -0.6195  0.4530 -0.6661
 2906SOL    HW1 5441   3.758   2.926   2.426 -1.0749  0.3686 -1.7862
 2906SOL    HW2 5442   3.717   3.071   2.443  0.8785  0.5491  3.1848
 2907SOL     OW 5443   1.433   2.966   1.315  0.2076  0.3662 -0.1387
 2907SOL    HW1 5444   1.359   3.028   1.317  0.7809  1.0478  0.5599
 2907SOL    HW2 5445   1.496   3.007   1.256  0.5033  0.3440  0.1622
 2908SOL     OW 5446   0.311   2.762   0.660  0.2524  0.8290 -0.7067
 2908SOL    HW1 5447   0.249   2.836   0.654 -0.3855  0.2891 -0.9318
 2908SOL    HW2 5448   0.397   2.801   0.646 -0.2327  1.2548 -2.7797
 2909SOL     OW 5449   2.512   2.618   1.042  0.2067 -0.4651 -0.1195
 2909SOL    HW1 5450   2.464   2.544   1.007 -0.3351  0.7080 -2.0217
 2909SOL    HW2 5451   2.603   2.589   1.046 -0.3524 -2.1269  1.8692
 2910SOL     OW 5452   0.919   3.912   1.267 -0.4552 -0.5841 -0.2234
 2910SOL    HW1 5453   0.919   3.934   1.360  2.4398  1.0491 -0.4783
 2910SOL    HW2 5454   0.973   3.832   1.261  0.8504  0.2883 -0.5948
 2911SOL     OW 5455   0.159   1.733   0.955 -0.2770  0.1747  0.2098
 2911SOL    HW1 5456   0.149   1.661   0.892 -0.8483  1.0352 -0.7225
 2911SOL    HW2 5457   0.088   1.721   1.017 -1.3188  0.7678 -0.8196
 2912SOL     OW 5458   2.587   3.456   0.663  0.6800 -0.5105 -0.5957
 2912SOL    HW1 5459   2.640   3.377   0.654  0.8550 -0.5590  0.7263
 2912SOL    HW2 5460   2.602   3.485   0.753 -0.6000  0.1433 -0.5741
 2913SOL     OW 5461   1.718   3.869   0.692 -0.0583  0.9103 -0.1167
 2913SOL    HW1 5462   1.662   3.943   0.714  1.8019  2.2014  0.4978
 2913SOL    HW2 5463   1.802   3.908   0.667  0.3641 -0.9068 -1.8071
 2914SOL     OW 5464   2.187   0.452   1.632  0.6118 -0.2362  0.4101
 2914SOL    HW1 5465   2.252   0.406   1.580  0.4281 -0.9892  0.8304
 2914SOL    HW2 5466   2.213   0.437   1.723  1.1810  1.4344  0.5529
 2915SOL     OW 5467   2.290   2.917   1.685  0.2799 -0.4254 -0.3846
 2915SOL    HW1 5468   2.250   3.004   1.695  0.2773 -0.4501 -0.1883
 2915SOL    HW2 5469   2.383   2.935   1.668  0.3859 -0.4031  0.2178
 2916SOL     OW 5470   0.830   1.797   0.959  0.4719  0.2009 -0.0703
 2916SOL    HW1 5471   0.777   1.789   1.038 -1.1469 -0.2305 -1.1635
 2916SOL    HW2 5472   0.899   1.732   0.970 -0.6639 -0.9722  0.2897
 2917SOL     OW 5473   3.804   2.572   0.674 -0.1313  0.7066  0.5434
 2917SOL    HW1 5474   3.899   2.584   0.675 -0.2561  1.9829  2.2389
 2917SOL    HW2 5475   3.790   2.489   0.718  0.3171 -1.7128 -3.4247
 2918SOL     OW 5476   2.801   3.037   1.647  0.2816 -0.3610 -0.2585
 2918SOL    HW1 5477   2.748   2.958   1.660  0.4623 -0.3683  0.4529
 2918SOL    HW2 5478   2.839   3.026   1.560 -1.7860  0.1673 -1.3076
 2919SOL     OW 5479   2.044   2.238   2.133 -0.4615 -0.4932  0.0184
 2919SOL    HW1 5480   1.949   2.238   2.142 -0.5921  0.7700 -1.0626
 2919SOL    HW2 5481   2.060   2.286   2.052  1.2064  1.3056  1.3379
 2920SOL     OW 5482   0.471   3.605   0.673 -0.2227 -0.3104  0.1615
 2920SOL    HW1 5483   0.540   3.670   0.665 -0.0370 -0.6648 -1.2822
 2920SOL    HW2 5484   0.394   3.655   0.701 -0.3207  0.7216 -1.7855
 2921SOL     OW 5485   1.616   2.666   1.036  0.2986 -0.2921  0.0116
 2921SOL    HW1 5486   1.686   2.649   1.099 -1.7776  0.6544  2.8370
 2921SOL    HW2 5487   1.626   2.758   1.014  0.9686 -0.6004 -1.0026
 2922SOL     OW 5488   1.288   1.885   1.826 -0.4014  0.0736  0.2470
 2922SOL    HW1 5489   1.318   1.945   1.758  0.8779  0.8661  1.4564
 2922SOL    HW2 5490   1.263   1.942   1.899  0.7991 -0.8343  1.4014
 2923SOL     OW 5491   2.468   2.683   1.684  0.5671 -0.8694 -0.2716
 2923SOL    HW1 5492   2.415   2.614   1.724  1.3881 -0.5859  1.4001
 2923SOL    HW2 5493   2.419   2.710   1.606 -0.0067 -2.9777 -0.6877
 2924SOL     OW 5494   0.980   3.465   1.324  0.6981  0.0462  0.2150
 2924SOL    HW1 5495   0.959   3.517   1.401  2.4083 -0.5014  1.0978
 2924SOL    HW2 5496   0.897   3.426   1.298 -0.1117  1.1254  1.1066
 2925SOL     OW 5497   2.159   0.797   1.754  0.1793  0.5257  0.1249
 2925SOL    HW1 5498   2.074   0.753   1.764  0.4520 -0.7097 -2.4002
 2925SOL    HW2 5499   2.145   0.860   1.684  0.6102  2.5367  1.7409
 2926SOL     OW 5500   1.577   2.026   1.409 -0.1641  0.1075  0.2503
 2926SOL    HW1 5501   1.661   2.040   1.454  1.7989 -0.0078 -3.0431
 2926SOL    HW2 5502   1.558   2.111   1.368  0.1843 -0.7225 -1.7583
 2927SOL     OW 5503   0.031   3.560   1.913  0.2310  0.2386 -0.5536
 2927SOL    HW1 5504   0.033   3.633   1.976  0.3669 -2.0985  2.3520
 2927SOL    HW2 5505  -0.063   3.541   1.901  0.1915 -1.5676  1.9196
 2928SOL     OW 5506   2.355   2.395   0.947 -0.4902  0.2634  0.0982
 2928SOL    HW1 5507   2.305   2.321   0.982  0.4998  0.0400  1.1083
 2928SOL    HW2 5508   2.375   2.370   0.857 -1.7195  0.1283 -0.1485
 2929SOL     OW 5509   1.445   1.440   1.777  0.0494 -0.2880 -0.1075
 2929SOL    HW1 5510   1.386   1.512   1.755 -1.7109 -1.7893 -0.5077
 2929SOL    HW2 5511   1.508   1.479   1.838  1.4282  2.4852 -3.0269
 2930SOL     OW 5512   2.137   2.533   1.073 -0.3188  0.2351 -0.1356
 2930SOL    HW1 5513   2.157   2.455   1.125  0.3315  1.4029  1.4319
 2930SOL    HW2 5514   2.206   2.536   1.007 -1.5613 -1.6673 -1.6493
 2931SOL     OW 5515   3.052   2.817   1.556  0.3858 -0.3509  0.5995
 2931SOL    HW1 5516   3.030   2.724   1.570  0.3953 -0.2970  0.9828
 2931SOL    HW2 5517   2.982   2.850   1.500  1.5067 -1.1175 -1.3454
 2932SOL     OW 5518   2.349   4.244   2.438 -0.1735  0.1764  0.0165
 2932SOL    HW1 5519   2.329   4.186   2.364 -0.6578 -2.9545  2.4150
 2932SOL    HW2 5520   2.276   4.306   2.439 -0.1666  0.3129 -2.0601
 2933SOL     OW 5521   1.351   0.625   3.884 -0.1716  0.0744  0.4644
 2933SOL    HW1 5522   1.363   0.716   3.855  0.5365 -0.1542  0.0174
 2933SOL    HW2 5523   1.420   0.576   3.840 -0.0506 -0.5578  1.3209
 2934SOL     OW 5524   2.264   2.770   0.939  0.1730  0.5448  0.7644
 2934SOL    HW1 5525   2.327   2.716   0.986 -1.1064 -1.4825  0.2591
 2934SOL    HW2 5526   2.284   2.755   0.847  0.0101  1.2268  0.6148
 2935SOL     OW 5527   1.773   1.758   1.130  0.0402 -0.4958 -0.2670
 2935SOL    HW1 5528   1.701   1.819   1.120  1.0576  0.8239  0.1949
 2935SOL    HW2 5529   1.807   1.774   1.218  1.0617 -0.9067 -0.5656
 2936SOL     OW 5530   0.662   2.917   1.624  0.0806  0.4144  0.8152
 2936SOL    HW1 5531   0.631   2.827   1.636 -0.3160  0.2066 -1.3562
 2936SOL    HW2 5532   0.752   2.907   1.593 -0.3044  0.6694 -0.4720
 2937SOL     OW 5533   0.204   4.229   1.460 -0.3056  0.0165  0.7734
 2937SOL    HW1 5534   0.114   4.257   1.443 -0.2317 -0.3859 -0.3663
 2937SOL    HW2 5535   0.208   4.220   1.555 -1.2969  0.5954  0.8909
 2938SOL     OW 5536   1.608   3.351   0.970 -0.0325 -0.1836 -0.2943
 2938SOL    HW1 5537   1.543   3.351   0.900  1.1105 -0.3354 -1.3891
 2938SOL    HW2 5538   1.693   3.355   0.925  0.8514 -2.5745  0.9422
 2939SOL     OW 5539   2.512   0.820   1.456  0.2265  0.2011  0.4152
 2939SOL    HW1 5540   2.462   0.751   1.412  1.2020 -0.6702  0.6088
 2939SOL    HW2 5541   2.451   0.893   1.465 -0.6963 -0.4716 -0.2254
 2940SOL     OW 5542   3.558   1.651   2.986 -0.7084 -0.2689  0.0642
 2940SOL    HW1 5543   3.609   1.732   2.987 -0.8661 -0.1596  1.3559
 2940SOL    HW2 5544   3.467   1.680   2.978 -0.6242 -0.4511 -1.9635
 2941SOL     OW 5545   3.459   1.064   1.592  0.4274 -0.1328  0.3506
 2941SOL    HW1 5546   3.490   0.978   1.620  1.2437 -0.4497 -1.3667
 2941SOL    HW2 5547   3.363   1.056   1.595  0.4916 -0.6737  1.3878
 2942SOL     OW 5548   3.194   1.236   2.086 -0.0451  0.2485  0.2111
 2942SOL    HW1 5549   3.282   1.225   2.052 -0.6939 -2.7615 -0.7945
 2942SOL    HW2 5550   3.139   1.246   2.008 -0.5740  3.4184  0.8413
 2943SOL     OW 5551   4.262   1.143   1.680 -0.5076  0.6265 -0.6871
 2943SOL    HW1 5552   4.282   1.236   1.686  0.2866  0.4728 -0.8734
 2943SOL    HW2 5553   4.176   1.134   1.721  0.7544  0.9831  2.2595
 2944SOL     OW 5554   0.754   2.694   0.685 -0.6084  0.3190 -0.3197
 2944SOL    HW1 5555   0.805   2.624   0.643 -0.9718  0.1482 -0.4810
 2944SOL    HW2 5556   0.806   2.773   0.670 -0.5087  0.1869 -0.7032
 2945SOL     OW 5557   3.284   3.330   2.086 -0.4249 -0.4009  0.1202
 2945SOL    HW1 5558   3.362   3.277   2.067 -1.5613 -2.3499  0.6718
 2945SOL    HW2 5559   3.261   3.308   2.176 -2.1066 -0.5347 -0.3123
 2946SOL     OW 5560   0.234   3.601   2.652  0.2437  0.4631 -0.1443
 2946SOL    HW1 5561   0.270   3.655   2.581  0.2879  0.5086 -0.0871
 2946SOL    HW2 5562   0.256   3.648   2.732  2.0118 -0.5981  0.0529
 2947SOL     OW 5563   4.270   2.390   0.690 -0.0907 -0.1036  0.4057
 2947SOL    HW1 5564   4.308   2.317   0.640 -1.0047 -0.0718 -0.3737
 2947SOL    HW2 5565   4.343   2.449   0.705 -0.0895  0.8851 -2.7269
 2948SOL     OW 5566   1.260   2.619   0.887 -0.4015  0.2869  0.0217
 2948SOL    HW1 5567   1.259   2.641   0.981  1.9293  1.3897 -0.1291
 2948SOL    HW2 5568   1.313   2.540   0.882 -1.1568 -0.2041 -0.3193
 2949SOL     OW 5569   3.275   3.976   2.218 -0.4307 -0.2706  0.3559
 2949SOL    HW1 5570   3.311   4.051   2.171  1.7547 -0.6290  1.3400
 2949SOL    HW2 5571   3.254   3.912   2.149 -0.9350  0.6611 -0.3721
 2950SOL     OW 5572   0.188   2.794   0.946  0.3046 -0.2041  0.5660
 2950SOL    HW1 5573   0.225   2.791   0.858 -1.3831  0.5821 -0.2190
 2950SOL    HW2 5574   0.124   2.722   0.947 -2.1021  1.8060 -0.0692
 2951SOL     OW 5575   3.652   3.392   1.860 -0.0407 -0.7404  0.0749
 2951SOL    HW1 5576   3.583   3.328   1.877 -1.4047  0.5326 -0.4870
 2951SOL    HW2 5577   3.617   3.475   1.892  1.3907 -0.1185  0.1223
 2952SOL     OW 5578   3.785   2.401   1.410  0.4096 -0.0079  0.1227
 2952SOL    HW1 5579   3.701   2.380   1.451  1.5412 -1.3158  1.9374
 2952SOL    HW2 5580   3.792   2.496   1.418  0.2402 -0.1117  2.4733
 2953SOL     OW 5581   1.725   3.149   1.445  0.1542 -0.0965  0.2178
 2953SOL    HW1 5582   1.634   3.179   1.439  0.1996 -0.0846 -0.5673
 2953SOL    HW2 5583   1.729   3.100   1.527  0.0232  1.8503  1.4740
 2954SOL     OW 5584   3.384   0.047   1.287 -0.1132  0.4274 -0.0938
 2954SOL    HW1 5585   3.366   0.075   1.377 -0.7131 -1.1914  0.3204
 2954SOL    HW2 5586   3.305   0.068   1.238  0.4798  1.9707 -0.4320
 2955SOL     OW 5587   2.411   0.690   1.706  0.2161  0.1160 -0.5391
 2955SOL    HW1 5588   2.412   0.690   1.610  0.8790 -1.4755 -0.5697
 2955SOL    HW2 5589   2.322   0.715   1.730 -0.1145 -0.0277 -1.5892
 2956SOL     OW 5590   0.790   3.823   1.926 -0.0821  0.0338 -0.1352
 2956SOL    HW1 5591   0.778   3.891   1.992 -1.4622 -1.0743  0.8152
 2956SOL    HW2 5592   0.731   3.847   1.855  0.5557  0.6084 -0.4883
 2957SOL     OW 5593   2.227   3.512   2.167 -0.7732  0.1257 -0.2720
 2957SOL    HW1 5594   2.320   3.502   2.144 -1.0314  1.1189 -1.9122
 2957SOL    HW2 5595   2.199   3.424   2.192  0.7283 -0.0933  0.7799
 2958SOL     OW 5596   0.746   4.200   1.533  0.0053 -0.0416 -0.0928
 2958SOL    HW1 5597   0.724   4.233   1.620  2.0910  0.9026  0.1361
 2958SOL    HW2 5598   0.672   4.227   1.478 -0.5556  0.8467  1.0352
 2959SOL     OW 5599   4.236   3.138   1.440 -0.2982 -0.5445  0.3370
 2959SOL    HW1 5600   4.217   3.050   1.473  1.1497 -0.8700  0.3783
 2959SOL    HW2 5601   4.313   3.166   1.489 -1.4063  1.2417  1.1534
 2960SOL     OW 5602   2.273   3.188   1.715 -0.1998 -0.7456 -0.1159
 2960SOL    HW1 5603   2.356   3.214   1.754 -0.5925 -0.0920  0.3106
 2960SOL    HW2 5604   2.250   3.259   1.656 -0.8575 -0.5084  0.4036
 2961SOL     OW 5605   1.438   3.417   0.663 -0.2551 -0.5714  0.5094
 2961SOL    HW1 5606   1.486   3.340   0.634  0.6937 -0.0019  0.4930
 2961SOL    HW2 5607   1.495   3.491   0.639 -2.5212  0.4184 -2.4268
 2962SOL     OW 5608   3.607   3.914   1.358  0.5881 -0.2010  0.1577
 2962SOL    HW1 5609   3.561   3.972   1.297  0.7348  0.2165  0.4411
 2962SOL    HW2 5610   3.587   3.826   1.327  0.1790 -0.0043 -0.1433
 2963SOL     OW 5611   4.039   3.217   1.300  0.6992  0.1306 -0.7900
 2963SOL    HW1 5612   4.104   3.191   1.365  0.0396 -0.5603 -0.4000
 2963SOL    HW2 5613   4.031   3.312   1.310  0.5796  0.0266  0.1619
 2964SOL     OW 5614   1.708   1.060   1.472  0.5036  0.1954 -0.5456
 2964SOL    HW1 5615   1.799   1.057   1.445 -0.3702  0.4944 -3.9677
 2964SOL    HW2 5616   1.672   0.975   1.446 -0.4644  0.5591 -0.4326
 2965SOL     OW 5617   1.020   3.681   1.899 -0.2113 -0.2441 -0.2911
 2965SOL    HW1 5618   1.000   3.658   1.809 -2.4621  0.3345  0.0164
 2965SOL    HW2 5619   0.947   3.735   1.928  0.7675  0.1263  1.6845
 2966SOL     OW 5620   0.569   2.872   0.644 -0.6081  0.5773 -0.1353
 2966SOL    HW1 5621   0.637   2.806   0.653 -1.5884 -0.3067  1.2398
 2966SOL    HW2 5622   0.614   2.950   0.613  0.9547 -0.0879  0.3947
 2967SOL     OW 5623   1.854   3.315   2.078  0.2630  0.4054  0.6231
 2967SOL    HW1 5624   1.859   3.220   2.072 -1.1553  0.3916 -2.3200
 2967SOL    HW2 5625   1.761   3.333   2.096  0.5265  1.2591  1.2057
 2968SOL     OW 5626   1.882   3.255   0.910 -0.5187 -0.4156  0.1764
 2968SOL    HW1 5627   1.956   3.257   0.970 -0.3624 -0.2241 -0.0207
 2968SOL    HW2 5628   1.912   3.301   0.832 -1.4864  1.4401  0.8387
 2969SOL     OW 5629   4.196   2.100   0.667  0.5092  0.0031 -0.0793
 2969SOL    HW1 5630   4.266   2.038   0.687  0.0200  0.1270  2.4173
 2969SOL    HW2 5631   4.201   2.114   0.573  2.5256 -1.5402 -0.2522
 2970SOL     OW 5632   3.121   2.817   0.965 -0.2292  0.2909  0.1438
 2970SOL    HW1 5633   3.030   2.828   0.938  0.1181  2.2394 -0.3718
 2970SOL    HW2 5634   3.128   2.867   1.047  0.4034  0.2756  0.1062
 2971SOL     OW 5635   1.642   1.518   1.970  0.5209 -0.4596 -0.3080
 2971SOL    HW1 5636   1.729   1.522   2.010  0.5565  2.2018 -0.4811
 2971SOL    HW2 5637   1.602   1.602   1.991 -1.8267 -1.3968 -0.7126
 2972SOL     OW 5638   0.691   3.140   0.682 -0.1540 -0.2005 -0.1513
 2972SOL    HW1 5639   0.675   3.153   0.775  0.3958 -0.8320  0.0427
 2972SOL    HW2 5640   0.712   3.227   0.648 -2.1218  0.3443 -0.0609
 2973SOL     OW 5641   1.320   2.090   0.671  0.6457 -0.2077  0.1396
 2973SOL    HW1 5642   1.296   2.003   0.639  1.6472 -0.4706  0.0590
 2973SOL    HW2 5643   1.241   2.143   0.659 -0.5119 -1.4838  1.6655
 2974SOL     OW 5644   0.972   3.080   2.091 -0.1247  0.2558  0.1639
 2974SOL    HW1 5645   0.941   3.082   2.000  1.7861  0.0501 -0.5394
 2974SOL    HW2 5646   0.980   2.987   2.112 -1.5092  0.2848  0.9164
 2975SOL     OW 5647   4.267   2.050   3.645  0.5349 -0.2763  0.6790
 2975SOL    HW1 5648   4.217   1.987   3.593 -0.0609  0.4646  0.3297
 2975SOL    HW2 5649   4.229   2.135   3.621  1.0321  0.1704  1.4651
 2976SOL     OW 5650   1.634   3.609   0.628 -0.2072  0.4425 -0.7537
 2976SOL    HW1 5651   1.695   3.539   0.652 -1.0643  0.3771  1.4115
 2976SOL    HW2 5652   1.683   3.690   0.642 -0.2715  0.3610 -0.0364
 2977SOL     OW 5653   0.271   3.944   2.163 -0.1860 -0.0514 -0.4579
 2977SOL    HW1 5654   0.226   3.891   2.229  0.2163 -2.1360 -1.7367
 2977SOL    HW2 5655   0.227   3.921   2.081  0.6307  0.9175 -1.1897
 2978SOL     OW 5656   4.043   2.223   1.536 -0.1377  0.7312 -0.2357
 2978SOL    HW1 5657   3.962   2.208   1.488 -0.8007 -1.2135  1.3426
 2978SOL    HW2 5658   4.105   2.159   1.501 -0.1155  0.4280  0.3407
 2979SOL     OW 5659   1.820   3.373   1.276  0.7604 -0.0329  0.2723
 2979SOL    HW1 5660   1.799   3.309   1.344  0.3688  1.9507  2.1495
 2979SOL    HW2 5661   1.747   3.367   1.214 -0.0254 -0.4222  1.2023
 2980SOL     OW 5662   0.187   2.474   1.124  0.8014 -0.3996  1.0186
 2980SOL    HW1 5663   0.268   2.518   1.098 -0.3037  0.6845 -0.8571
 2980SOL    HW2 5664   0.175   2.405   1.058  1.1495 -1.8115  2.3948
 2981SOL     OW 5665   2.554   1.174   1.599  0.0061 -0.1595 -0.1405
 2981SOL    HW1 5666   2.486   1.242   1.596  1.1497  1.0772  0.4268
 2981SOL    HW2 5667   2.583   1.165   1.509 -0.1558  0.1307 -0.2252
 2982SOL     OW 5668   1.298   0.177   0.990 -0.3345 -0.2231  0.2003
 2982SOL    HW1 5669   1.343   0.108   0.942  1.0332  1.3383 -0.8570
 2982SOL    HW2 5670   1.266   0.237   0.922  0.2737  1.2174  1.1329
 2983SOL     OW 5671   1.721   2.746   1.319 -0.4726  0.0182 -0.4191
 2983SOL    HW1 5672   1.805   2.720   1.357 -1.1286  1.1423  1.9697
 2983SOL    HW2 5673   1.730   2.841   1.307 -1.1025  0.0072 -1.0063
 2984SOL     OW 5674   1.715   3.370   3.090 -0.2996 -0.4902 -0.1473
 2984SOL    HW1 5675   1.722   3.442   3.153 -0.4937  1.2288 -1.9733
 2984SOL    HW2 5676   1.640   3.319   3.119  0.3467 -0.4851  1.6705
 2985SOL     OW 5677   2.272   3.418   0.931 -0.5185 -0.1942 -0.3682
 2985SOL    HW1 5678   2.328   3.436   1.007 -0.8506  0.3308 -0.2447
 2985SOL    HW2 5679   2.187   3.397   0.969 -0.7569  0.3346 -0.6049
 2986SOL     OW 5680   3.364   2.311   1.710 -0.2792 -0.4388 -0.3470
 2986SOL    HW1 5681   3.374   2.316   1.805 -3.7596 -0.1853  0.1263
 2986SOL    HW2 5682   3.376   2.219   1.689  0.0208 -0.5767  0.3837
 2987SOL     OW 5683   1.374   1.243   3.220  0.3366 -0.2333 -0.0345
 2987SOL    HW1 5684   1.289   1.252   3.177  0.2057  3.0130  0.6847
 2987SOL    HW2 5685   1.435   1.226   3.149 -0.6165 -0.4996 -0.8153
 2988SOL     OW 5686   2.254   0.849   2.639  0.2135 -0.1723 -0.3810
 2988SOL    HW1 5687   2.281   0.940   2.649  0.7021 -0.3328 -0.2164
 2988SOL    HW2 5688   2.283   0.824   2.551  0.4367 -0.2855 -0.2774
 2989SOL     OW 5689   0.395   2.300   0.668 -0.2344  0.5742 -0.2188
 2989SOL    HW1 5690   0.396   2.241   0.744 -1.8020 -0.1765 -0.7208
 2989SOL    HW2 5691   0.472   2.355   0.679  2.0179 -2.3355 -0.3526
 2990SOL     OW 5692   0.724   3.430   0.672 -0.0407  0.3348 -0.7075
 2990SOL    HW1 5693   0.693   3.390   0.753 -0.8055  1.3514 -0.4715
 2990SOL    HW2 5694   0.651   3.486   0.644  0.6161  0.8020 -1.5289
 2991SOL     OW 5695   0.894   2.917   0.684  0.5279  0.1698  0.3067
 2991SOL    HW1 5696   0.988   2.922   0.697  0.4336  0.5350  0.8732
 2991SOL    HW2 5697   0.865   3.008   0.681  0.3381  0.0936 -1.0434
 2992SOL     OW 5698   0.161   1.515   1.394  0.3661 -0.2468  0.2593
 2992SOL    HW1 5699   0.220   1.480   1.327  1.2009 -1.3535  1.5310
 2992SOL    HW2 5700   0.076   1.520   1.350  1.3692  1.5440 -1.6801
 2993SOL     OW 5701   3.854   3.427   1.665  0.0370  0.4419 -0.1953
 2993SOL    HW1 5702   3.821   3.448   1.578 -0.0815  0.0818 -0.2350
 2993SOL    HW2 5703   3.776   3.425   1.721 -0.2835 -2.1483 -0.6082
 2994SOL     OW 5704   0.187   2.221   1.538  0.3578 -0.1519  0.0900
 2994SOL    HW1 5705   0.110   2.248   1.588  0.6932 -1.5682  1.4187
 2994SOL    HW2 5706   0.158   2.224   1.447 -1.5400 -1.4237  0.6029
 2995SOL     OW 5707   0.217   2.493   0.695  0.4794 -0.4479  0.6555
 2995SOL    HW1 5708   0.223   2.573   0.643  0.3893 -1.2584 -0.6310
 2995SOL    HW2 5709   0.288   2.437   0.664  0.1950 -1.0991  1.1379
 2996SOL     OW 5710   4.122   3.720   4.122 -0.1966  0.3993 -0.4616
 2996SOL    HW1 5711   4.090   3.798   4.167 -0.1182  0.5736 -0.7073
 2996SOL    HW2 5712   4.213   3.741   4.100  0.2945 -0.3283  0.7835
 2997SOL     OW 5713   4.113   2.187   2.024 -0.2241  0.3073 -0.2734
 2997SOL    HW1 5714   4.204   2.196   2.052 -0.2292 -0.5258  0.0460
 2997SOL    HW2 5715   4.065   2.170   2.105 -0.4142 -0.9079 -0.6255
 2998SOL     OW 5716   0.908   2.833   1.471  0.1470  0.1552 -0.3391
 2998SOL    HW1 5717   0.906   2.810   1.378 -1.0241  0.5306 -0.4177
 2998SOL    HW2 5718   0.925   2.750   1.515  2.6887  0.2465 -0.9408
 2999SOL     OW 5719   0.055   0.145   3.489 -0.2179 -0.6879 -0.1539
 2999SOL    HW1 5720  -0.037   0.165   3.501 -0.4185 -0.7028 -1.5379
 2999SOL    HW2 5721   0.060   0.104   3.402  0.8497 -2.2340  0.5822
 3000SOL     OW 5722   2.802   3.068   2.747 -0.2695  0.3491 -0.3816
 3000SOL    HW1 5723   2.836   3.008   2.814 -0.6878  0.4106 -0.1075
 3000SOL    HW2 5724   2.852   3.047   2.669  1.0141  1.0474  0.2276
 3001SOL     OW 5725   0.869   1.451   2.284 -0.1607 -0.2304 -0.1014
 3001SOL    HW1 5726   0.875   1.378   2.346 -3.1298 -0.0848  0.4955
 3001SOL    HW2 5727   0.908   1.525   2.330 -0.4260 -0.6113  0.7439
 3002SOL     OW 5728   1.363   2.275   4.105  0.1090  0.2519 -0.0237
 3002SOL    HW1 5729   1.402   2.363   4.104  1.5071 -0.3200  1.3632
 3002SOL    HW2 5730   1.274   2.289   4.137  0.5012  1.1122  0.7344
 3003SOL     OW 5731   1.809   2.259   3.242 -0.0947 -0.3814  0.2288
 3003SOL    HW1 5732   1.881   2.293   3.295  0.0445  1.0283 -0.8043
 3003SOL    HW2 5733   1.741   2.236   3.305 -0.1011  1.6512  1.0244
 3004SOL     OW 5734   2.340   2.804   3.112  0.3520  0.4901 -0.5417
 3004SOL    HW1 5735   2.313   2.779   3.200 -0.0810 -1.3740 -1.1678
 3004SOL    HW2 5736   2.259   2.799   3.060  0.7263  0.9147 -1.1783
 3005SOL     OW 5737   3.750   2.471   4.852  0.2942 -0.7511 -0.2181
 3005SOL    HW1 5738   3.720   2.397   4.904  1.4664  0.3951  2.2507
 3005SOL    HW2 5739   3.689   2.542   4.873  1.6094  0.1251  0.7491
 3006SOL     OW 5740   2.852   0.928   2.101 -0.3643 -0.2398 -0.1103
 3006SOL    HW1 5741   2.797   0.980   2.042 -0.3386 -0.4964 -0.3673
 3006SOL    HW2 5742   2.797   0.914   2.178 -0.8170 -0.8267 -0.5274
 3007SOL     OW 5743   3.430   3.645   1.533 -0.0379 -0.7200 -0.4720
 3007SOL    HW1 5744   3.452   3.638   1.440  1.4359  1.6531 -0.3857
 3007SOL    HW2 5745   3.338   3.671   1.533  0.6069  2.0335 -1.5087
 3008SOL     OW 5746   3.736   3.964   2.209  0.2802  0.0626 -0.2055
 3008SOL    HW1 5747   3.690   3.922   2.282 -1.5814 -0.1090 -1.3927
 3008SOL    HW2 5748   3.746   3.894   2.144 -0.8673  0.8670 -1.3115
 3009SOL     OW 5749   1.074   3.710   2.792  0.5011  0.5915 -1.0376
 3009SOL    HW1 5750   1.010   3.675   2.730  2.9121 -2.6890 -1.9690
 3009SOL    HW2 5751   1.106   3.790   2.750  0.8024 -0.6092 -3.2653
 3010SOL     OW 5752   1.346   4.236   3.727  0.1005 -0.1075 -0.2409
 3010SOL    HW1 5753   1.378   4.319   3.762 -0.1616 -0.6531  1.3952
 3010SOL    HW2 5754   1.300   4.195   3.801 -0.8601 -1.1509 -1.3667
 3011SOL     OW 5755   2.197   2.192   1.079 -0.7996 -0.0488 -0.2176
 3011SOL    HW1 5756   2.249   2.116   1.053  0.7202  1.6107 -2.5316
 3011SOL    HW2 5757   2.109   2.159   1.091  0.4008 -2.7207  2.2605
 3012SOL     OW 5758   4.065   3.934   2.184  0.1330  0.4239  0.5639
 3012SOL    HW1 5759   4.019   3.916   2.266  1.6708 -0.7603  1.2080
 3012SOL    HW2 5760   4.015   3.887   2.117 -0.0243 -0.2399  1.1349
 3013SOL     OW 5761   1.169   2.151   3.188  0.1266 -0.0026 -0.0097
 3013SOL    HW1 5762   1.087   2.106   3.168  0.7364 -0.6072 -1.2686
 3013SOL    HW2 5763   1.210   2.096   3.255 -0.0313 -0.2643 -0.1235
 3014SOL     OW 5764   1.217   3.150   1.877 -0.7263  0.6465 -0.0446
 3014SOL    HW1 5765   1.147   3.213   1.860 -2.2543 -0.7611  0.7894
 3014SOL    HW2 5766   1.293   3.204   1.900 -1.1957  2.2482 -1.9702
 3015SOL     OW 5767   1.986   3.385   3.333  0.0003 -0.2505 -0.1462
 3015SOL    HW1 5768   1.948   3.426   3.255 -0.1382  0.6732  0.3904
 3015SOL    HW2 5769   2.004   3.295   3.306 -1.2923 -0.3360 -0.8460
 3016SOL     OW 5770   0.437   0.874   2.487  0.2685  0.4851  0.0907
 3016SOL    HW1 5771   0.526   0.840   2.476 -0.3863 -0.8305 -1.7748
 3016SOL    HW2 5772   0.390   0.803   2.531 -0.3616  0.2051 -0.9910
 3017SOL     OW 5773   0.967   0.086   3.577  0.1931 -0.5337  0.2425
 3017SOL    HW1 5774   1.029   0.142   3.530 -1.8031 -0.6584 -2.7997
 3017SOL    HW2 5775   0.908   0.147   3.621 -0.3878 -0.2483 -0.8866
 3018SOL     OW 5776   2.485   3.676   1.486  0.0160  0.0030  0.3772
 3018SOL    HW1 5777   2.454   3.767   1.489  0.6199  0.3100 -1.6075
 3018SOL    HW2 5778   2.413   3.626   1.525  0.6364  1.4894  3.7562
 3019SOL     OW 5779   2.742   2.428   2.902  0.1024  0.6583  0.2284
 3019SOL    HW1 5780   2.682   2.389   2.966 -0.5865  1.4950  0.1182
 3019SOL    HW2 5781   2.809   2.361   2.888 -0.9650 -0.4214  0.1348
 3020SOL     OW 5782   3.826   2.065   2.786  0.1950  0.0660  0.2476
 3020SOL    HW1 5783   3.898   2.049   2.725  0.9174  1.0497  0.8160
 3020SOL    HW2 5784   3.756   2.099   2.732  0.5514  0.1776 -0.1479
 3021SOL     OW 5785   0.692   2.577   1.923  0.3676 -0.1919 -0.5227
 3021SOL    HW1 5786   0.731   2.654   1.881  0.3810 -0.3666 -0.8397
 3021SOL    HW2 5787   0.753   2.553   1.992 -0.7092  1.3977  1.0493
 3022SOL     OW 5788   0.956   1.985   3.202  0.1703  0.0043 -0.0254
 3022SOL    HW1 5789   0.954   1.914   3.266  2.3543 -2.7455 -2.6503
 3022SOL    HW2 5790   0.887   1.962   3.139 -0.6295  1.5589  0.2321
 3023SOL     OW 5791   0.914   1.805   0.685  0.6835 -0.2038  0.1071
 3023SOL    HW1 5792   0.892   1.816   0.778  0.2450  0.5022 -0.0668
 3023SOL    HW2 5793   0.955   1.888   0.660  2.9769 -1.2133  0.2338
 3024SOL     OW 5794   1.345   3.652   2.599 -0.5351 -0.2209 -0.5020
 3024SOL    HW1 5795   1.437   3.657   2.625 -0.8840  0.2037  0.7681
 3024SOL    HW2 5796   1.313   3.742   2.610 -0.9833 -0.2538 -1.4432
 3025SOL     OW 5797   0.224   3.319   2.766  0.4796 -0.1613 -0.2161
 3025SOL    HW1 5798   0.205   3.402   2.723  0.2444  0.3697  0.8709
 3025SOL    HW2 5799   0.253   3.344   2.854  0.3174 -1.2311  0.1582
 3026SOL     OW 5800   2.909   2.969   1.389  0.3807  0.3495  0.1373
 3026SOL    HW1 5801   2.831   2.968   1.333  0.1594  1.9516  0.3564
 3026SOL    HW2 5802   2.981   2.987   1.329  0.6075 -1.0974 -0.0603
 3027SOL     OW 5803   2.136   4.008   3.456 -0.0127 -0.1824 -0.2048
 3027SOL    HW1 5804   2.187   4.086   3.480 -2.3116  0.5208  3.2182
 3027SOL    HW2 5805   2.050   4.043   3.430 -0.5446 -1.5219 -0.3230
 3028SOL     OW 5806   2.338   1.703   2.961 -0.0951  0.5483 -0.4804
 3028SOL    HW1 5807   2.304   1.651   3.034  1.2324  1.0893  0.5563
 3028SOL    HW2 5808   2.367   1.639   2.896  1.0428 -0.0181  0.5627
 3029SOL     OW 5809   1.667   1.963   2.140  0.0361  0.3438  0.1463
 3029SOL    HW1 5810   1.714   1.887   2.172 -1.4076 -0.2501  0.9694
 3029SOL    HW2 5811   1.623   1.998   2.218 -0.4305  1.1958 -0.4813
 3030SOL     OW 5812   0.652   2.342   1.761 -0.3785  0.2663 -0.5017
 3030SOL    HW1 5813   0.566   2.362   1.723 -1.3664  0.5259  1.7322
 3030SOL    HW2 5814   0.671   2.416   1.818  1.2465  0.0962 -0.7748
 3031SOL     OW 5815   3.369   3.640   3.177 -0.0848  0.5100 -0.1533
 3031SOL    HW1 5816   3.461   3.618   3.190  0.0740  1.3781  0.3003
 3031SOL    HW2 5817   3.322   3.588   3.243  0.1134  0.3502 -0.1391
 3032SOL     OW 5818   2.063   2.471   2.312 -0.3326 -0.6977  0.1919
 3032SOL    HW1 5819   1.974   2.497   2.334  0.4369  0.4712  2.1854
 3032SOL    HW2 5820   2.054   2.383   2.276 -2.0092 -2.1184  3.6653
 3033SOL     OW 5821   1.162   3.455   2.165 -0.2911 -0.6074  0.4133
 3033SOL    HW1 5822   1.126   3.530   2.211 -0.9909 -0.9265  0.3941
 3033SOL    HW2 5823   1.088   3.418   2.118  0.3359 -0.5003 -0.6889
 3034SOL     OW 5824   2.026   2.516   3.561  0.4419  0.3565  0.2037
 3034SOL    HW1 5825   1.933   2.535   3.558 -0.0858 -1.9263 -0.1239
 3034SOL    HW2 5826   2.068   2.600   3.577 -1.8156  1.1418  2.6827
 3035SOL     OW 5827   1.208   2.696   1.567  0.2540 -0.2560  0.1129
 3035SOL    HW1 5828   1.293   2.736   1.587 -0.5507  0.7819  1.7934
 3035SOL    HW2 5829   1.216   2.666   1.477  2.5663 -0.6592  0.3828
 3036SOL     OW 5830   0.735   2.896   3.751 -0.3403 -0.0099  0.0955
 3036SOL    HW1 5831   0.674   2.841   3.800 -1.0325  0.3470 -0.3464
 3036SOL    HW2 5832   0.772   2.838   3.685 -0.5186 -0.1265  0.0976
 3037SOL     OW 5833   1.300   3.599   1.862 -0.2569  0.2564 -0.6065
 3037SOL    HW1 5834   1.315   3.686   1.826 -1.1953  0.2475 -1.0492
 3037SOL    HW2 5835   1.216   3.606   1.909 -0.6826 -0.5674 -1.2143
 3038SOL     OW 5836   1.067   2.658   1.847  0.0977  0.1567 -0.4450
 3038SOL    HW1 5837   1.027   2.576   1.818  0.0899 -0.1727  0.4598
 3038SOL    HW2 5838   1.090   2.703   1.766 -1.7499  0.1950 -1.0052
 3039SOL     OW 5839   2.058   3.298   1.119 -0.1405 -0.5779 -0.7532
 3039SOL    HW1 5840   2.128   3.331   1.175  1.3794  1.1330 -3.4240
 3039SOL    HW2 5841   1.981   3.298   1.175  1.2767  0.8804  1.3715
 3040SOL     OW 5842   1.083   3.701   1.203  0.6313 -0.0128  0.3984
 3040SOL    HW1 5843   1.079   3.611   1.235  1.4087  0.6711  2.5584
 3040SOL    HW2 5844   1.135   3.696   1.123  0.5130 -1.4834  0.3856
 3041SOL     OW 5845   2.713   3.944   2.483  0.0099 -0.2098 -0.0529
 3041SOL    HW1 5846   2.798   3.987   2.487 -0.3020  0.3118  2.2306
 3041SOL    HW2 5847   2.727   3.859   2.526 -0.3135 -0.7274 -0.9404
 3042SOL     OW 5848   0.845   1.246   2.574  0.3886  0.2488 -0.1354
 3042SOL    HW1 5849   0.830   1.321   2.631 -1.8015 -1.4169  1.6947
 3042SOL    HW2 5850   0.940   1.239   2.566  0.7583  1.1809  2.5435
 3043SOL     OW 5851   2.024   1.008   1.511  0.8734 -0.3714 -0.1036
 3043SOL    HW1 5852   2.009   1.034   1.420  0.6264 -0.7069 -0.1630
 3043SOL    HW2 5853   2.007   0.913   1.512 -2.5796  0.1398  1.0036
 3044SOL     OW 5854   1.368   0.838   3.672 -0.0245 -0.2670 -0.1246
 3044SOL    HW1 5855   1.447   0.860   3.623 -0.2019  0.2039 -0.2087
 3044SOL    HW2 5856   1.329   0.923   3.695 -0.0249 -0.4776  0.7040
 3045SOL     OW 5857   0.621   3.330   4.471 -0.7611 -0.4491 -0.5173
 3045SOL    HW1 5858   0.607   3.247   4.426  1.4515 -0.7089 -0.8513
 3045SOL    HW2 5859   0.655   3.305   4.557 -1.6322  0.1038 -0.0003
 3046SOL     OW 5860   4.084   1.279   2.975  0.4399 -0.4096  0.1123
 3046SOL    HW1 5861   4.129   1.362   2.960 -1.4267  0.8421  1.0401
 3046SOL    HW2 5862   4.011   1.279   2.912 -0.8577 -0.2835  1.5543
 3047SOL     OW 5863   3.478   3.570   2.743  0.6129 -0.6235  1.3358
 3047SOL    HW1 5864   3.406   3.513   2.773 -0.2100  0.0555  0.6928
 3047SOL    HW2 5865   3.437   3.655   2.729  1.1586 -0.6643 -0.7727
 3048SOL     OW 5866   1.810   2.532   1.537 -0.6563  0.1948  0.1680
 3048SOL    HW1 5867   1.819   2.541   1.632  1.8959  0.4303 -0.0264
 3048SOL    HW2 5868   1.856   2.607   1.501 -0.2543 -0.6973 -1.2662
 3049SOL     OW 5869   1.524   1.790   2.301  0.3082 -0.0394 -0.4566
 3049SOL    HW1 5870   1.563   1.712   2.341  1.7481  0.0901 -1.5473
 3049SOL    HW2 5871   1.545   1.861   2.361 -0.2831 -0.3261  0.1136
 3050SOL     OW 5872   2.802   3.233   1.829 -0.4991  0.1242  0.1629
 3050SOL    HW1 5873   2.888   3.256   1.866 -0.7174 -0.7535  1.2771
 3050SOL    HW2 5874   2.821   3.166   1.764 -0.3875 -0.7050  1.0184
 3051SOL     OW 5875   2.194   0.750   1.200  0.7104  0.3778  1.2083
 3051SOL    HW1 5876   2.172   0.791   1.116  3.0997  0.7117  0.6877
 3051SOL    HW2 5877   2.196   0.823   1.262 -2.7404 -0.0695  2.0377
 3052SOL     OW 5878   0.364   3.445   2.969  0.2917  0.5679  0.3990
 3052SOL    HW1 5879   0.429   3.466   3.036  2.1731  0.0738 -1.1803
 3052SOL    HW2 5880   0.336   3.530   2.935  1.2482  0.7807  0.0952
 3053SOL     OW 5881   0.793   1.624   4.181  0.3510 -0.3646 -0.0849
 3053SOL    HW1 5882   0.823   1.715   4.171 -0.6091  0.2186  1.8397
 3053SOL    HW2 5883   0.870   1.576   4.210  0.5898  0.0676  0.0020
 3054SOL     OW 5884   3.899   4.180   2.943  0.5177  0.1024 -0.4847
 3054SOL    HW1 5885   3.979   4.230   2.956  0.2365  0.4608 -0.1217
 3054SOL    HW2 5886   3.893   4.124   3.021  0.4285  0.0553 -0.5258
 3055SOL     OW 5887   1.910   0.554   1.865 -0.1845  0.1982 -0.0318
 3055SOL    HW1 5888   1.939   0.472   1.904 -0.3410  0.6150  1.0105
 3055SOL    HW2 5889   1.820   0.566   1.897 -0.3110  0.5720 -0.5055
 3056SOL     OW 5890   0.473   3.996   3.684 -0.0828  0.3062  0.2483
 3056SOL    HW1 5891   0.497   4.020   3.774  2.1129 -0.7456  0.0226
 3056SOL    HW2 5892   0.556   3.994   3.637 -1.1011  0.0802 -1.6339
 3057SOL     OW 5893   0.818   4.116   4.515 -0.1164 -0.4461  0.0785
 3057SOL    HW1 5894   0.780   4.188   4.565  0.9414  0.1426  0.0844
 3057SOL    HW2 5895   0.778   4.037   4.551  1.0350 -0.1132  2.3358
 3058SOL     OW 5896   2.033   2.644   1.978 -0.6493 -0.4277 -0.0544
 3058SOL    HW1 5897   2.104   2.651   2.042 -0.4285  1.3124 -0.4505
 3058SOL    HW2 5898   1.958   2.684   2.021 -1.3497 -1.9807  0.2402
 3059SOL     OW 5899   1.069   2.813   3.766 -0.0823 -0.5899  0.8396
 3059SOL    HW1 5900   1.006   2.838   3.835  0.1846  1.5939  0.3774
 3059SOL    HW2 5901   1.148   2.790   3.814 -0.0232  0.5235  1.3177
 3060SOL     OW 5902   1.411   0.461   3.188 -0.2444 -0.0262  0.4670
 3060SOL    HW1 5903   1.465   0.453   3.266 -1.2521 -2.5051  0.9885
 3060SOL    HW2 5904   1.339   0.518   3.215  0.7008  1.2027  0.5162
 3061SOL     OW 5905   1.777   3.055   3.254 -0.0608 -0.2534 -0.2218
 3061SOL    HW1 5906   1.773   2.964   3.224  0.6368 -1.5519  3.1052
 3061SOL    HW2 5907   1.867   3.082   3.236 -0.0974 -0.4319 -0.6834
 3062SOL     OW 5908   1.765   2.233   2.086 -0.2437  0.2618 -0.0027
 3062SOL    HW1 5909   1.671   2.250   2.086 -0.0550  1.5940 -1.9759
 3062SOL    HW2 5910   1.772   2.138   2.075 -1.3380  0.1641  0.0129
 3063SOL     OW 5911   0.328   3.692   1.606 -0.4910 -0.2939  0.1568
 3063SOL    HW1 5912   0.343   3.773   1.655 -0.7577  0.1580 -0.4830
 3063SOL    HW2 5913   0.233   3.683   1.604 -0.4884 -0.2731 -0.3101
 3064SOL     OW 5914   2.042   3.999   2.885  0.2330  0.0075 -0.0854
 3064SOL    HW1 5915   2.038   3.925   2.945 -0.2830 -0.6840 -0.9271
 3064SOL    HW2 5916   2.123   4.044   2.906  0.3211 -0.5281  0.7560
 3065SOL     OW 5917   0.187   4.207   3.266 -0.2868  0.1757  0.0964
 3065SOL    HW1 5918   0.223   4.172   3.347 -0.4157 -0.7226 -0.2195
 3065SOL    HW2 5919   0.258   4.197   3.202  0.1179  1.6677  0.2798
 3066SOL     OW 5920   1.443   0.940   1.811 -0.0796 -0.2094 -0.0647
 3066SOL    HW1 5921   1.528   0.900   1.828 -0.8698 -1.1416  2.1031
 3066SOL    HW2 5922   1.463   1.032   1.792  1.3755 -0.2517  1.0677
 3067SOL     OW 5923   1.885   3.454   2.893  0.4970 -0.0006  0.1224
 3067SOL    HW1 5924   1.836   3.406   2.960  2.6022 -1.1366  0.9635
 3067SOL    HW2 5925   1.934   3.520   2.941 -0.4007  1.3363 -0.7353
 3068SOL     OW 5926   1.198   0.885   1.898 -0.1553  0.1473 -0.0827
 3068SOL    HW1 5927   1.178   0.944   1.971 -0.2473  0.2781 -0.2153
 3068SOL    HW2 5928   1.289   0.903   1.877 -0.1781  0.2289 -0.1114
 3069SOL     OW 5929   1.292   2.411   3.253  0.6867 -0.2088  0.0764
 3069SOL    HW1 5930   1.253   2.324   3.241 -1.0216  0.8453 -2.9583
 3069SOL    HW2 5931   1.251   2.444   3.333 -2.1858 -0.5003 -1.1625
 3070SOL     OW 5932   0.942   0.296   3.339 -0.7742  0.1042 -0.0857
 3070SOL    HW1 5933   0.932   0.365   3.405 -2.6221 -1.0292  0.8759
 3070SOL    HW2 5934   1.032   0.264   3.351 -0.8794  0.3281  1.4857
 3071SOL     OW 5935   2.207   3.016   1.240 -0.3408 -0.4574 -0.1646
 3071SOL    HW1 5936   2.125   3.027   1.191  0.1622 -2.5671 -1.6174
 3071SOL    HW2 5937   2.269   3.072   1.195 -0.3790 -0.8550 -0.7327
 3072SOL     OW 5938   3.854   1.663   3.544 -0.3020  0.1164  0.1015
 3072SOL    HW1 5939   3.793   1.655   3.471 -1.1800  1.3071  0.6650
 3072SOL    HW2 5940   3.799   1.691   3.618  0.3906 -1.8931  1.4726
 3073SOL     OW 5941   1.166   3.946   2.389  0.0643  0.5567 -0.7624
 3073SOL    HW1 5942   1.088   3.951   2.333  0.5714  0.1611 -1.5039
 3073SOL    HW2 5943   1.225   4.012   2.354 -0.7252  2.3725  1.0855
 3074SOL     OW 5944   4.279   1.382   3.207 -0.0248  0.0189  0.4635
 3074SOL    HW1 5945   4.219   1.323   3.161  0.9546 -1.1368  0.5928
 3074SOL    HW2 5946   4.349   1.324   3.238 -0.1974  0.8831  2.6647
 3075SOL     OW 5947   4.060   1.420   4.238 -0.4058  0.0550 -0.4325
 3075SOL    HW1 5948   4.143   1.431   4.283 -0.8499 -0.0172  0.4168
 3075SOL    HW2 5949   4.075   1.350   4.175 -0.1309 -0.7191  0.4808
 3076SOL     OW 5950   0.726   3.698   1.177 -0.0797 -0.4515  0.4542
 3076SOL    HW1 5951   0.779   3.686   1.098 -0.6959 -0.5598  0.0530
 3076SOL    HW2 5952   0.761   3.777   1.218  0.0409 -0.2172 -0.0941
 3077SOL     OW 5953   0.345   4.076   4.392  0.0710 -0.0956  0.2944
 3077SOL    HW1 5954   0.334   3.990   4.433 -0.6758 -0.8807 -1.4339
 3077SOL    HW2 5955   0.373   4.055   4.302  0.3152  1.4965 -0.0172
 3078SOL     OW 5956   0.064   3.455   3.992  0.2859  0.4833  0.4435
 3078SOL    HW1 5957   0.024   3.480   3.908 -0.2970 -0.2698  0.4940
 3078SOL    HW2 5958   0.156   3.441   3.970  0.1276  0.2296 -0.0852
 3079SOL     OW 5959   0.778   3.377   1.743  0.4881 -0.3257  0.1269
 3079SOL    HW1 5960   0.753   3.408   1.830  0.7096  1.8432 -0.5260
 3079SOL    HW2 5961   0.701   3.329   1.712 -0.3061  0.4914  0.7921
 3080SOL     OW 5962   0.487   4.227   1.373  0.2317 -0.2920  0.3218
 3080SOL    HW1 5963   0.483   4.236   1.278  1.1953  2.0902  0.4505
 3080SOL    HW2 5964   0.396   4.240   1.402 -0.0343 -0.8559 -0.2313
 3081SOL     OW 5965   1.730   0.052   4.687  0.3941  0.1018  0.2234
 3081SOL    HW1 5966   1.817   0.072   4.651  0.3358  1.6000  0.8710
 3081SOL    HW2 5967   1.670   0.108   4.637 -0.2228 -0.9268 -0.2233
 3082SOL     OW 5968   1.731   3.219   3.452 -0.1360  0.5890 -0.2168
 3082SOL    HW1 5969   1.719   3.147   3.514  1.9839  0.5831  0.2605
 3082SOL    HW2 5970   1.749   3.175   3.368  1.3129  0.5085  0.1062
 3083SOL     OW 5971   0.770   0.038   2.697  0.2910  0.4005 -0.2526
 3083SOL    HW1 5972   0.704   0.083   2.750 -0.5543  0.4911 -1.3434
 3083SOL    HW2 5973   0.747  -0.055   2.704  0.2693  0.3986 -0.3631
 3084SOL     OW 5974   1.456   1.476   3.612 -0.5714 -0.1316  0.1003
 3084SOL    HW1 5975   1.478   1.393   3.569 -1.2097 -0.3174  0.1072
 3084SOL    HW2 5976   1.486   1.466   3.702 -3.2305 -1.5525  0.9422
 3085SOL     OW 5977   1.828   1.819   2.449  0.3242  0.6781  0.1040
 3085SOL    HW1 5978   1.798   1.905   2.418 -0.3335  0.4193  0.0180
 3085SOL    HW2 5979   1.869   1.779   2.373 -0.3595  0.4669 -0.1587
 3086SOL     OW 5980   2.575   0.221   1.790  0.1260  0.2041  0.3550
 3086SOL    HW1 5981   2.592   0.298   1.844 -1.7044  1.0993 -0.2787
 3086SOL    HW2 5982   2.589   0.147   1.849 -1.2458  1.1246  1.9275
 3087SOL     OW 5983   4.128   1.225   3.543  0.3699  0.6539  0.3325
 3087SOL    HW1 5984   4.121   1.176   3.461  0.5445 -0.2099  0.8268
 3087SOL    HW2 5985   4.143   1.315   3.515  1.9306  0.1487 -0.5938
 3088SOL     OW 5986   0.554   3.341   5.052  0.2885  0.2868  0.0806
 3088SOL    HW1 5987   0.527   3.352   4.960 -0.7416 -1.7149  0.0876
 3088SOL    HW2 5988   0.637   3.389   5.058 -0.3130  1.6272 -1.5214
 3089SOL     OW 5989   3.654   1.748   3.687 -0.1415  0.5889  0.3697
 3089SOL    HW1 5990   3.582   1.716   3.633 -0.5778  0.2950  1.1156
 3089SOL    HW2 5991   3.614   1.809   3.748  0.4066  1.1995  0.1407
 3090SOL     OW 5992   2.277   2.257   3.924 -0.1322  0.3867  0.1211
 3090SOL    HW1 5993   2.345   2.191   3.911 -0.6537 -0.1752  0.1812
 3090SOL    HW2 5994   2.256   2.288   3.836  0.3683  0.7386  0.1230
 3091SOL     OW 5995   1.537   2.998   2.154 -0.3176  0.1523 -0.1185
 3091SOL    HW1 5996   1.444   2.990   2.135 -0.4873 -0.2399  0.8329
 3091SOL    HW2 5997   1.546   2.971   2.245  0.8338 -0.5581 -0.4126
 3092SOL     OW 5998   0.668   2.079   1.832  0.1601 -0.6496 -0.1313
 3092SOL    HW1 5999   0.641   2.082   1.924 -1.7381  1.7495 -0.6418
 3092SOL    HW2 6000   0.612   2.143   1.789  1.8855 -0.7427 -2.7590
 3093SOL     OW 6001   1.903   1.507   2.034 -0.1607 -0.2682  0.1820
 3093SOL    HW1 6002   1.957   1.516   1.955  0.2071  0.0710  0.4681
 3093SOL    HW2 6003   1.909   1.414   2.056  1.9262  0.0838  1.3246
 3094SOL     OW 6004   1.158   3.196   2.436 -0.4000 -0.0452  0.1406
 3094SOL    HW1 6005   1.199   3.277   2.467 -0.2103  0.5866 -1.6537
 3094SOL    HW2 6006   1.067   3.220   2.421 -0.5122 -0.3631  0.3260
 3095SOL     OW 6007   0.924   1.129   3.268  0.7451 -0.2454  0.0069
 3095SOL    HW1 6008   0.924   1.125   3.364  0.1079  1.7901  0.1384
 3095SOL    HW2 6009   0.833   1.149   3.245  0.9422 -0.4615 -1.0227
 3096SOL     OW 6010   1.374   2.758   2.989 -0.4364 -0.9320 -0.4059
 3096SOL    HW1 6011   1.293   2.762   3.040 -0.5760 -1.0180 -0.6218
 3096SOL    HW2 6012   1.424   2.686   3.030 -0.0371 -0.2406  0.3535
 3097SOL     OW 6013   1.645   1.043   2.763  0.3807  0.2557  0.2465
 3097SOL    HW1 6014   1.613   1.082   2.845 -0.4744  0.9734 -0.4072
 3097SOL    HW2 6015   1.597   1.090   2.695  1.3291 -0.1045 -0.6814
 3098SOL     OW 6016   3.631   0.029   3.074  0.2923 -0.6635  0.2945
 3098SOL    HW1 6017   3.539   0.027   3.103  0.5221  0.6226  1.2129
 3098SOL    HW2 6018   3.657  -0.063   3.073  0.0363 -0.9081  3.6281
 3099SOL     OW 6019   4.132   0.053   3.009 -0.4572  0.1144  0.0536
 3099SOL    HW1 6020   4.192   0.102   2.953  1.9194 -1.8568  0.6947
 3099SOL    HW2 6021   4.096   0.119   3.068  0.6912  1.4788 -0.7060
 3100SOL     OW 6022   1.112   3.357   2.794  0.6122 -0.1758  0.0078
 3100SOL    HW1 6023   1.165   3.424   2.749 -0.4071  0.9029  0.3678
 3100SOL    HW2 6024   1.173   3.314   2.854  1.9818 -1.5304 -2.2073
 3101SOL     OW 6025   1.142   2.383   3.517  0.1274  0.2467 -0.4981
 3101SOL    HW1 6026   1.168   2.319   3.584  1.9506 -0.6958 -2.0376
 3101SOL    HW2 6027   1.111   2.458   3.568  1.2084 -0.5168  1.4100
 3102SOL     OW 6028   0.055   1.757   2.569 -0.1868  1.1510  0.0272
 3102SOL    HW1 6029   0.028   1.847   2.590  1.1337  1.5284  0.2474
 3102SOL    HW2 6030   0.096   1.726   2.650 -2.0668 -0.2798  0.5081
 3103SOL     OW 6031   1.177   2.056   2.826 -0.3055 -0.8276  0.2880
 3103SOL    HW1 6032   1.228   2.019   2.898  1.1457  1.0396  0.2800
 3103SOL    HW2 6033   1.132   2.131   2.863  0.6133  0.2805 -0.7512
 3104SOL     OW 6034   0.870   1.730   1.481 -0.0644 -0.0169  0.5465
 3104SOL    HW1 6035   0.879   1.644   1.521  1.8375  0.5159  1.3648
 3104SOL    HW2 6036   0.852   1.789   1.555 -1.5919  0.3066 -0.0266
 3105SOL     OW 6037   0.955   3.666   2.504  0.4010 -0.1836 -0.2120
 3105SOL    HW1 6038   0.918   3.578   2.501 -0.0790  0.0408 -2.1750
 3105SOL    HW2 6039   0.980   3.685   2.413 -0.6430  2.1585 -0.0804
 3106SOL     OW 6040   3.983   3.930   4.246 -0.2843  0.3605 -0.2103
 3106SOL    HW1 6041   3.887   3.930   4.252 -0.3175 -1.0470 -0.4334
 3106SOL    HW2 6042   4.012   3.950   4.335 -0.7994 -1.0686  0.3000
 3107SOL     OW 6043   0.703   1.902   3.060 -0.1493  0.3811  0.2402
 3107SOL    HW1 6044   0.625   1.850   3.081 -0.9210  1.3485 -0.1732
 3107SOL    HW2 6045   0.721   1.882   2.968 -0.1772  0.5058  0.2078
 3108SOL     OW 6046   3.908   2.865   2.380  0.0231  0.1635 -0.1322
 3108SOL    HW1 6047   3.899   2.872   2.285 -2.4672 -0.9632 -0.0442
 3108SOL    HW2 6048   3.943   2.777   2.394  2.6960  1.1547 -0.0287
 3109SOL     OW 6049   0.883   2.561   1.479 -0.9841  0.1481 -0.5529
 3109SOL    HW1 6050   0.962   2.533   1.525 -0.8641  0.3845 -0.6143
 3109SOL    HW2 6051   0.823   2.487   1.487 -0.5681 -0.2403 -0.9567
 3110SOL     OW 6052   1.488   4.163   4.840 -0.5714  0.2763 -0.2511
 3110SOL    HW1 6053   1.486   4.113   4.758  2.3967 -0.1714 -0.1639
 3110SOL    HW2 6054   1.416   4.225   4.832 -0.4544  0.1804 -3.1802
 3111SOL     OW 6055   1.353   2.158   2.653  0.0930  0.1604 -0.7579
 3111SOL    HW1 6056   1.272   2.122   2.690 -0.4959 -0.2790 -2.4220
 3111SOL    HW2 6057   1.411   2.083   2.643 -0.7874 -0.2702 -3.3186
 3112SOL     OW 6058   2.659   0.938   1.657  0.1611 -0.7007  0.4957
 3112SOL    HW1 6059   2.605   0.886   1.598  0.0729 -0.3498  0.2650
 3112SOL    HW2 6060   2.626   1.028   1.648  1.2538 -0.3452 -0.2019
 3113SOL     OW 6061   1.882   1.038   1.788  0.6598  0.0913 -0.7837
 3113SOL    HW1 6062   1.863   0.949   1.758 -1.2035 -0.5089  1.8230
 3113SOL    HW2 6063   1.893   1.089   1.707  2.0100 -2.4868 -2.3372
 3114SOL     OW 6064   1.651   0.579   1.937 -0.0333 -0.3484 -0.0935
 3114SOL    HW1 6065   1.596   0.591   1.859 -0.3857  0.8485  0.3120
 3114SOL    HW2 6066   1.669   0.668   1.967  0.2906 -0.7856  1.0624
 3115SOL     OW 6067   0.894   3.330   2.181  0.0231 -0.0251 -0.4308
 3115SOL    HW1 6068   0.933   3.249   2.149 -2.8176 -1.4695 -0.6036
 3115SOL    HW2 6069   0.876   3.314   2.274 -0.3850  0.4800 -0.4140
 3116SOL     OW 6070   3.762   2.297   1.705 -0.2860 -0.6359  0.0484
 3116SOL    HW1 6071   3.814   2.338   1.774 -1.1177  0.8764 -0.1702
 3116SOL    HW2 6072   3.696   2.363   1.683 -0.9854 -1.6866 -1.1298
 3117SOL     OW 6073   1.907   2.670   4.668 -0.3155 -0.5988  0.3871
 3117SOL    HW1 6074   1.920   2.581   4.702  0.6439 -0.3665  0.6735
 3117SOL    HW2 6075   1.893   2.657   4.574  0.6458 -1.0240  0.2818
 3118SOL     OW 6076   2.512   3.900   1.790 -0.1663 -0.0896 -0.5955
 3118SOL    HW1 6077   2.479   3.932   1.875 -0.2071 -0.6623 -0.3927
 3118SOL    HW2 6078   2.445   3.928   1.727 -1.2991 -1.6275 -0.1292
 3119SOL     OW 6079   1.548   2.275   1.264  0.7638  0.6994  0.4639
 3119SOL    HW1 6080   1.536   2.354   1.318  2.6607  1.7237 -0.5192
 3119SOL    HW2 6081   1.570   2.308   1.177 -0.9812 -0.9360 -0.6777
 3120SOL     OW 6082   1.251   2.383   2.507  0.2778  0.0827  0.3839
 3120SOL    HW1 6083   1.292   2.315   2.560 -1.2823 -0.7990  0.4933
 3120SOL    HW2 6084   1.250   2.347   2.419  0.2388  0.3437  0.2782
 3121SOL     OW 6085   1.223   3.896   2.648 -0.4229 -0.5538 -0.0295
 3121SOL    HW1 6086   1.197   3.905   2.556  0.6912 -1.6068 -0.4804
 3121SOL    HW2 6087   1.291   3.961   2.660 -0.3787 -0.5996 -0.0317
 3122SOL     OW 6088   4.112   1.898   2.354 -0.3065 -0.0731 -0.5638
 3122SOL    HW1 6089   4.072   1.984   2.339 -2.1866 -0.8791 -0.4375
 3122SOL    HW2 6090   4.186   1.895   2.293 -0.4881  1.4407 -0.9049
 3123SOL     OW 6091   3.404   3.084   2.843 -0.7776 -0.1648 -0.2272
 3123SOL    HW1 6092   3.313   3.055   2.843 -1.0065  0.4673 -1.3608
 3123SOL    HW2 6093   3.442   3.044   2.764  0.4633 -1.9047  1.1624
 3124SOL     OW 6094   0.458   3.025   0.931  0.5297 -0.6073 -0.5023
 3124SOL    HW1 6095   0.491   2.935   0.934 -0.7965 -1.1341 -0.9900
 3124SOL    HW2 6096   0.383   3.021   0.872  2.2510  1.4272 -3.0421
 3125SOL     OW 6097   3.207   3.971   1.513 -0.5342 -0.4578 -0.6626
 3125SOL    HW1 6098   3.198   3.876   1.525 -0.9677 -0.3039  0.3681
 3125SOL    HW2 6099   3.160   4.009   1.587 -1.7316  0.6027 -1.9051
 3126SOL     OW 6100   1.138   0.243   2.911 -0.0878 -0.6515 -0.1438
 3126SOL    HW1 6101   1.216   0.215   2.960  0.8007  0.2129 -1.0261
 3126SOL    HW2 6102   1.067   0.239   2.975  0.4891 -2.3037  0.4617
 3127SOL     OW 6103   0.436   3.188   1.916 -0.4458  0.4936  0.1177
 3127SOL    HW1 6104   0.371   3.257   1.902 -1.2027 -0.2461 -0.1511
 3127SOL    HW2 6105   0.398   3.111   1.872 -0.6360 -0.6452  2.1517
 3128SOL     OW 6106   0.091   2.097   3.293 -0.3848  0.2152 -0.1083
 3128SOL    HW1 6107   0.035   2.023   3.316 -0.4130  0.0216 -0.7950
 3128SOL    HW2 6108   0.031   2.171   3.284 -0.4411  0.1668 -0.1301
 3129SOL     OW 6109   0.699   1.231   3.165 -0.0366  0.4864  0.2188
 3129SOL    HW1 6110   0.717   1.277   3.083 -0.8415 -1.4804 -1.1182
 3129SOL    HW2 6111   0.614   1.266   3.194 -0.9521 -0.4968 -1.1208
 3130SOL     OW 6112   4.027   1.867   3.544 -0.0224 -0.2438  0.1727
 3130SOL    HW1 6113   3.989   1.911   3.620 -2.1359 -0.8088 -0.5109
 3130SOL    HW2 6114   3.983   1.782   3.540 -0.0171 -0.1912 -1.7318
 3131SOL     OW 6115   3.166   3.213   2.512  0.8177  0.8129  0.4510
 3131SOL    HW1 6116   3.137   3.165   2.590  0.9472 -2.3507 -1.2978
 3131SOL    HW2 6117   3.089   3.264   2.485 -0.1212 -0.2377  1.0747
 3132SOL     OW 6118   0.829   2.284   2.114  0.0108 -0.5426 -0.1759
 3132SOL    HW1 6119   0.747   2.332   2.105  0.1573 -0.5233 -1.6257
 3132SOL    HW2 6120   0.895   2.352   2.130 -0.1455 -0.5082  0.3697
 3133SOL     OW 6121   1.186   2.554   2.237 -0.3275  0.3914  0.4133
 3133SOL    HW1 6122   1.120   2.622   2.219 -1.4244 -0.5784  0.6457
 3133SOL    HW2 6123   1.149   2.504   2.310 -0.5007 -1.6727 -1.0170
 3134SOL     OW 6124   1.688   3.164   2.390 -0.4570 -0.7376  0.4957
 3134SOL    HW1 6125   1.661   3.231   2.327 -0.0653 -0.4038  0.6764
 3134SOL    HW2 6126   1.655   3.196   2.474  0.8316 -0.1079  0.7895
 3135SOL     OW 6127   0.628   3.208   2.596  0.5628 -0.3893  0.7484
 3135SOL    HW1 6128   0.589   3.137   2.648  1.2552 -0.1163  1.6464
 3135SOL    HW2 6129   0.601   3.288   2.640 -1.6484  0.0698 -1.2079
 3136SOL     OW 6130   2.072   3.614   3.059  0.0769  0.1906 -0.1460
 3136SOL    HW1 6131   2.158   3.618   3.019 -0.0120 -0.2097 -0.3826
 3136SOL    HW2 6132   2.052   3.705   3.083  0.2690  0.3810 -0.7064
 3137SOL     OW 6133   1.853   2.052   3.043 -0.1620 -0.3597  0.3199
 3137SOL    HW1 6134   1.774   1.999   3.050 -0.7468  0.1012 -1.8267
 3137SOL    HW2 6135   1.839   2.125   3.104 -1.2857 -0.4197  0.1501
 3138SOL     OW 6136   3.894   1.333   2.770 -0.2385  0.3664 -0.3622
 3138SOL    HW1 6137   3.915   1.333   2.677 -0.8316  0.2910 -0.5040
 3138SOL    HW2 6138   3.812   1.382   2.776 -0.7306 -0.4771 -0.0072
 3139SOL     OW 6139   2.606   4.022   2.074  0.2840  0.3213 -0.2655
 3139SOL    HW1 6140   2.559   3.988   2.150 -0.8639  0.3415 -0.9397
 3139SOL    HW2 6141   2.698   4.004   2.093 -0.0910 -0.9743  0.4936
 3140SOL     OW 6142   1.421   2.091   0.920 -0.2080  0.2378 -0.1959
 3140SOL    HW1 6143   1.400   2.083   0.827  1.5362  0.2778 -0.6148
 3140SOL    HW2 6144   1.398   2.181   0.943  1.2026  0.8546 -1.0996
 3141SOL     OW 6145   1.696   1.522   1.281 -0.3107  0.2477  0.6161
 3141SOL    HW1 6146   1.648   1.518   1.363 -1.8181 -0.5865 -0.2647
 3141SOL    HW2 6147   1.630   1.541   1.214  0.9926  1.6781 -0.3293
 3142SOL     OW 6148   1.505   1.922   4.759  0.3782  0.9427 -0.2755
 3142SOL    HW1 6149   1.432   1.923   4.821  1.3079  0.4331  0.8687
 3142SOL    HW2 6150   1.545   2.009   4.769  1.2654  0.4414  0.7905
 3143SOL     OW 6151   2.087   3.127   3.264 -0.3297 -0.8308 -0.0811
 3143SOL    HW1 6152   2.168   3.115   3.315 -0.0117  2.0776  0.2994
 3143SOL    HW2 6153   2.117   3.131   3.173 -0.3565 -1.8544 -0.1484
 3144SOL     OW 6154   3.274   3.312   1.796  0.7848  0.0911  0.0917
 3144SOL    HW1 6155   3.325   3.245   1.749  0.2623  0.1402 -0.5581
 3144SOL    HW2 6156   3.286   3.290   1.889  0.5357 -0.9710 -0.1077
 3145SOL     OW 6157   4.054   0.442   4.347  0.3168  0.6668  0.1726
 3145SOL    HW1 6158   4.006   0.523   4.364 -0.1560  0.1142  1.6609
 3145SOL    HW2 6159   4.146   0.469   4.345  0.5256  0.8358  4.3253
 3146SOL     OW 6160   3.140   3.004   2.898 -0.2736 -0.0383  0.1824
 3146SOL    HW1 6161   3.138   3.085   2.948 -0.0150  0.3625 -0.4507
 3146SOL    HW2 6162   3.063   2.955   2.929 -1.4115  1.1674 -0.6236
 3147SOL     OW 6163   1.269   0.778   1.272 -0.4702 -0.1974 -0.3237
 3147SOL    HW1 6164   1.237   0.738   1.353 -0.2465 -1.1603 -0.7054
 3147SOL    HW2 6165   1.189   0.806   1.226 -0.5743  0.8320  0.4587
 3148SOL     OW 6166   3.158   3.561   3.740 -0.7372  0.2035 -0.5624
 3148SOL    HW1 6167   3.146   3.474   3.704 -0.5500  0.3130 -0.8897
 3148SOL    HW2 6168   3.153   3.620   3.664 -0.9448  0.4827 -0.3353
 3149SOL     OW 6169   2.258   2.675   2.567  0.2211 -0.4496 -0.4014
 3149SOL    HW1 6170   2.317   2.749   2.585  1.0252 -0.9592 -0.8526
 3149SOL    HW2 6171   2.293   2.636   2.486 -0.4968 -1.0125 -0.4488
 3150SOL     OW 6172   2.249   3.466   3.361  0.1245 -0.0185 -0.5845
 3150SOL    HW1 6173   2.263   3.448   3.268 -0.4840 -1.7137 -0.3787
 3150SOL    HW2 6174   2.160   3.434   3.378 -0.6895  2.3884  0.0870
 3151SOL     OW 6175   1.204   1.758   2.869 -0.3711 -0.5256  0.3049
 3151SOL    HW1 6176   1.161   1.703   2.935  0.2085  0.5126  1.6031
 3151SOL    HW2 6177   1.133   1.797   2.819 -0.8555 -0.7129  0.8467
 3152SOL     OW 6178   0.828   0.937   2.270  0.5429 -0.3887  0.4877
 3152SOL    HW1 6179   0.873   0.940   2.186  2.0882 -0.0235  1.2858
 3152SOL    HW2 6180   0.897   0.951   2.335 -0.9628  2.0552  1.7185
 3153SOL     OW 6181   3.939   0.434   2.228 -0.2595 -0.3755  0.1424
 3153SOL    HW1 6182   3.909   0.350   2.193  1.8521 -1.1210 -0.0181
 3153SOL    HW2 6183   3.861   0.490   2.225 -1.2070 -1.6788 -1.7210
 3154SOL     OW 6184   0.073   3.697   1.677 -0.1513  0.5140  0.3260
 3154SOL    HW1 6185  -0.010   3.746   1.672 -0.8582 -0.7269 -0.4538
 3154SOL    HW2 6186   0.066   3.648   1.759 -1.4786 -1.7525 -1.0411
 3155SOL     OW 6187   2.484   4.309   1.047  0.0071 -0.0040  0.0937
 3155SOL    HW1 6188   2.425   4.270   0.982  2.2426 -0.7469 -1.6297
 3155SOL    HW2 6189   2.491   4.242   1.115  1.7354 -1.6336 -1.5615
 3156SOL     OW 6190   1.045   3.037   2.706 -0.3479 -0.1426 -0.1422
 3156SOL    HW1 6191   1.038   3.129   2.732  2.4052  0.4986 -1.3401
 3156SOL    HW2 6192   1.004   3.033   2.620 -0.1904  0.0259 -0.2248
 3157SOL     OW 6193   0.911   3.946   2.605 -0.4793  0.8541  0.5422
 3157SOL    HW1 6194   0.911   3.865   2.553 -1.8247  1.4125 -0.3932
 3157SOL    HW2 6195   1.004   3.971   2.611 -0.1128 -0.3910  0.2638
 3158SOL     OW 6196   0.074   3.770   1.069  0.4983 -0.6669 -0.3658
 3158SOL    HW1 6197   0.130   3.845   1.088  0.5024  0.3662 -3.7974
 3158SOL    HW2 6198   0.124   3.694   1.101  1.2936  0.6045  1.5773
 3159SOL     OW 6199   3.914   3.775   2.021 -0.6264  0.1233 -0.2993
 3159SOL    HW1 6200   3.986   3.764   1.958 -1.0323  0.3786 -0.8121
 3159SOL    HW2 6201   3.907   3.690   2.065 -1.4672 -0.6286 -1.8173
 3160SOL     OW 6202   1.256   1.835   2.363  0.1245 -0.1667  0.4668
 3160SOL    HW1 6203   1.324   1.833   2.296 -1.0829  0.3603 -0.8124
 3160SOL    HW2 6204   1.300   1.806   2.443  1.9993  0.7273 -0.1875
 3161SOL     OW 6205   4.027   1.876   4.516 -0.1388 -0.8115 -0.0706
 3161SOL    HW1 6206   4.011   1.782   4.510 -1.7719 -0.5559 -0.2039
 3161SOL    HW2 6207   4.099   1.892   4.455  0.6277 -2.0566  0.4643
 3162SOL     OW 6208   0.524   2.306   3.871 -0.2274  0.6877  0.1462
 3162SOL    HW1 6209   0.460   2.257   3.922  0.3394  0.6561  0.8290
 3162SOL    HW2 6210   0.495   2.295   3.780 -0.5782 -0.2238  0.3580
 3163SOL     OW 6211   1.000   3.380   5.265 -0.1350  0.2450 -0.0733
 3163SOL    HW1 6212   0.994   3.472   5.237 -1.7693  0.4581  0.8721
 3163SOL    HW2 6213   0.985   3.330   5.186  0.6635  0.7713 -0.5799
 3164SOL     OW 6214   1.358   3.649   4.704 -0.1458 -0.2692 -0.2159
 3164SOL    HW1 6215   1.316   3.565   4.686 -0.9635 -0.0086  0.3658
 3164SOL    HW2 6216   1.305   3.687   4.775 -1.1820  1.7001 -1.9260
 3165SOL     OW 6217   1.948   0.282   4.261 -0.0703  0.7457 -0.1264
 3165SOL    HW1 6218   1.878   0.255   4.319  0.7860 -0.1599  0.5313
 3165SOL    HW2 6219   1.957   0.210   4.199  2.3561 -0.7478  1.7458
 3166SOL     OW 6220   0.927   2.543   6.582 -0.3116 -0.9414  0.0810
 3166SOL    HW1 6221   0.987   2.614   6.557 -0.2685 -0.3702  1.6730
 3166SOL    HW2 6222   0.932   2.540   6.678 -1.2975 -2.2438  0.1191
 3167SOL     OW 6223   2.896   2.759   6.823  0.3130  0.7705 -0.0761
 3167SOL    HW1 6224   2.823   2.739   6.765 -1.3163  1.4330  1.6334
 3167SOL    HW2 6225   2.932   2.673   6.847 -0.2627  0.4059 -0.5077
 3168SOL     OW 6226   3.304   3.713   4.119 -0.0115  0.6791 -0.1984
 3168SOL    HW1 6227   3.322   3.729   4.211  1.5479 -0.6582 -0.2229
 3168SOL    HW2 6228   3.213   3.738   4.107 -1.0832 -1.5513  2.3339
 3169SOL     OW 6229   0.682   2.158   5.279 -0.5105  0.4380 -0.4496
 3169SOL    HW1 6230   0.699   2.168   5.185 -1.4387 -1.7333 -0.9086
 3169SOL    HW2 6231   0.637   2.239   5.303  0.7030  1.5199 -1.5854
 3170SOL     OW 6232   4.226   2.611   5.101  0.2326  0.2590  0.1786
 3170SOL    HW1 6233   4.143   2.634   5.060  0.6600  0.8924 -0.3329
 3170SOL    HW2 6234   4.234   2.516   5.088  0.7502  0.5480 -1.9574
 3171SOL     OW 6235   1.521   3.224   5.785  0.6239 -0.0881  0.1417
 3171SOL    HW1 6236   1.550   3.272   5.862 -0.2717  0.3112  0.2480
 3171SOL    HW2 6237   1.582   3.251   5.716 -0.8407  2.6378 -0.2535
 3172SOL     OW 6238   0.308   3.780   3.340 -0.3558 -0.4711  0.2021
 3172SOL    HW1 6239   0.231   3.723   3.340  0.0133 -0.9757  0.6733
 3172SOL    HW2 6240   0.351   3.763   3.423 -0.4351  0.7787  0.5284
 3173SOL     OW 6241   1.249   1.875   6.158 -0.0440  0.2005  0.3653
 3173SOL    HW1 6242   1.262   1.818   6.082 -0.8020  0.9456 -0.3537
 3173SOL    HW2 6243   1.196   1.822   6.218  2.7870 -1.4133  1.6377
 3174SOL     OW 6244   0.294   3.094   6.745  0.1031  0.6259 -0.0592
 3174SOL    HW1 6245   0.265   3.178   6.712 -2.7332  0.2604  1.2268
 3174SOL    HW2 6246   0.252   3.086   6.831  1.6245 -1.3996  0.5876
 3175SOL     OW 6247   1.128   0.114   2.286 -0.3002 -0.1454  0.1138
 3175SOL    HW1 6248   1.164   0.083   2.369  2.5863 -2.4535 -1.7746
 3175SOL    HW2 6249   1.190   0.181   2.257  0.3146 -1.2824 -1.3423
 3176SOL     OW 6250   3.071   1.379   5.017 -0.3740  0.1722 -0.1770
 3176SOL    HW1 6251   3.099   1.290   5.038 -1.0311 -0.6081 -2.3248
 3176SOL    HW2 6252   2.995   1.394   5.073  0.4294 -0.1447  1.0407
 3177SOL     OW 6253   2.460   1.289   4.489  0.5058 -0.2677 -0.2316
 3177SOL    HW1 6254   2.520   1.231   4.537  0.6568  0.9708  1.1483
 3177SOL    HW2 6255   2.487   1.377   4.515 -0.8704  0.3642 -0.8801
 3178SOL     OW 6256   1.460   2.531   2.205 -0.1866 -0.2780  0.6311
 3178SOL    HW1 6257   1.499   2.600   2.152 -0.3244 -0.2835  0.5223
 3178SOL    HW2 6258   1.367   2.552   2.207 -0.1021  0.0464  1.3566
 3179SOL     OW 6259   1.444   3.115   5.154 -0.5031 -0.8105 -0.2041
 3179SOL    HW1 6260   1.480   3.070   5.077  0.0819  1.5054 -1.3989
 3179SOL    HW2 6261   1.350   3.096   5.152 -1.7139  3.3859 -4.9210
 3180SOL     OW 6262   2.446   2.798   4.647  0.1726  0.2882 -0.4085
 3180SOL    HW1 6263   2.365   2.815   4.600  0.2653 -0.9690 -1.0708
 3180SOL    HW2 6264   2.429   2.716   4.694  1.5250 -0.7829 -1.7142
 3181SOL     OW 6265   1.140   4.011   4.132 -0.0186 -0.4443  0.0464
 3181SOL    HW1 6266   1.057   3.990   4.175 -0.0716  1.8788  1.2921
 3181SOL    HW2 6267   1.204   3.953   4.173 -0.6567 -0.6003  0.8483
 3182SOL     OW 6268   0.250   1.842   4.047  0.1196 -0.2440 -0.7875
 3182SOL    HW1 6269   0.255   1.865   3.955 -0.8979 -1.9730 -1.3216
 3182SOL    HW2 6270   0.159   1.860   4.071  0.3219 -0.0169 -0.1645
 3183SOL     OW 6271   1.341   3.207   2.889  0.1807 -0.2194 -0.2234
 3183SOL    HW1 6272   1.389   3.207   2.972  0.0228  0.4920 -0.1182
 3183SOL    HW2 6273   1.380   3.137   2.838 -0.2940 -1.2475  0.7841
 3184SOL     OW 6274   2.517   2.282   4.726  0.3376  0.4103  0.1954
 3184SOL    HW1 6275   2.542   2.242   4.810 -1.7302 -0.1559  0.6023
 3184SOL    HW2 6276   2.447   2.226   4.693  0.8497  0.8441 -1.7573
 3185SOL     OW 6277   4.073   4.017   3.575 -0.0751 -0.3163  0.3427
 3185SOL    HW1 6278   4.155   4.029   3.527 -0.2467 -0.0746  0.1090
 3185SOL    HW2 6279   4.097   3.960   3.648  0.3882  0.0947  0.5186
 3186SOL     OW 6280   4.112   1.739   3.880 -0.0550  0.0579  0.5196
 3186SOL    HW1 6281   4.167   1.681   3.826  0.3058  0.0934  0.8415
 3186SOL    HW2 6282   4.066   1.793   3.816  0.4954  0.2145  0.2419
 3187SOL     OW 6283   0.898   3.239   5.011 -0.3785  0.1311  0.0176
 3187SOL    HW1 6284   0.911   3.175   4.941 -0.9844 -0.6383  0.5855
 3187SOL    HW2 6285   0.863   3.317   4.967 -1.2176 -0.5114 -0.4754
 3188SOL     OW 6286   1.005   2.541   4.051  0.3551 -0.6564 -0.6926
 3188SOL    HW1 6287   1.038   2.465   4.003  0.2592 -0.4545 -1.0879
 3188SOL    HW2 6288   0.918   2.556   4.014 -0.2935 -1.3299  0.5023
 3189SOL     OW 6289   2.341   1.028   4.296  0.4887  0.6882  0.0716
 3189SOL    HW1 6290   2.429   0.991   4.288  0.9798  2.0137 -1.2088
 3189SOL    HW2 6291   2.285   0.964   4.253  1.1425  0.8269 -1.0310
 3190SOL     OW 6292   0.036   0.873   2.402 -0.3327  0.5276 -0.4097
 3190SOL    HW1 6293   0.053   0.803   2.339 -1.3763  0.6405 -0.8322
 3190SOL    HW2 6294   0.078   0.950   2.364 -0.3786  0.4422 -0.6371
 3191SOL     OW 6295   1.585   3.867   3.487 -0.0231  0.1788 -0.1466
 3191SOL    HW1 6296   1.512   3.913   3.530  1.0365  1.3662  0.4373
 3191SOL    HW2 6297   1.542   3.801   3.433 -1.6369  1.8826 -1.0831
 3192SOL     OW 6298   3.975   2.201   5.705 -0.4984 -0.0102 -0.4892
 3192SOL    HW1 6299   3.911   2.130   5.703  1.0333 -1.4254 -0.7202
 3192SOL    HW2 6300   4.011   2.205   5.617  0.1909  0.3381 -0.2062
 3193SOL     OW 6301   0.348   3.541   6.026 -0.7552 -0.2407  0.0259
 3193SOL    HW1 6302   0.321   3.452   6.006 -1.8612  0.2294 -0.6190
 3193SOL    HW2 6303   0.324   3.592   5.949 -2.6844  1.1286  1.4510
 3194SOL     OW 6304   0.546   2.998   5.747 -0.5087 -0.7784 -0.2169
 3194SOL    HW1 6305   0.569   3.073   5.693  2.6165 -0.9463  0.6509
 3194SOL    HW2 6306   0.500   3.035   5.822  2.4594  0.6801  1.0703
 3195SOL     OW 6307   1.754   2.465   7.415 -0.3819 -0.7081 -0.0600
 3195SOL    HW1 6308   1.711   2.506   7.491 -1.4135 -0.1485 -0.9088
 3195SOL    HW2 6309   1.686   2.408   7.379  0.3227 -1.4698 -0.1836
 3196SOL     OW 6310   0.654   0.349   5.424  0.0832  0.0892  0.3175
 3196SOL    HW1 6311   0.650   0.296   5.345 -1.3253  0.9106 -0.1940
 3196SOL    HW2 6312   0.564   0.376   5.439 -0.5110 -3.1018  4.3359
 3197SOL     OW 6313   0.335   0.551   4.395  0.3051  0.3031 -0.1459
 3197SOL    HW1 6314   0.288   0.624   4.355  0.3483 -0.8677 -2.5018
 3197SOL    HW2 6315   0.427   0.570   4.379  0.2823 -0.7016 -1.7259
 3198SOL     OW 6316   0.657   2.885   5.381  0.7725 -0.0504 -0.5196
 3198SOL    HW1 6317   0.653   2.917   5.291 -0.5499 -1.4466 -0.9883
 3198SOL    HW2 6318   0.748   2.901   5.407  1.1377  0.5579 -2.0261
 3199SOL     OW 6319   0.284   3.069   4.099  0.4136  0.2131 -0.5803
 3199SOL    HW1 6320   0.361   3.126   4.097  2.2338 -1.7910  2.5557
 3199SOL    HW2 6321   0.210   3.128   4.091  2.2056  2.5558 -1.1496
 3200SOL     OW 6322   1.181   2.974   4.694  0.3815  0.0165 -0.0767
 3200SOL    HW1 6323   1.270   2.988   4.660 -0.2198 -0.3126 -1.9124
 3200SOL    HW2 6324   1.142   2.912   4.632 -0.4513 -1.5630  1.9100
 3201SOL     OW 6325   1.695   3.519   5.392  0.1182  0.6777 -0.8139
 3201SOL    HW1 6326   1.653   3.587   5.340 -2.0067  0.9991  1.1441
 3201SOL    HW2 6327   1.653   3.438   5.362 -0.4070  0.7517 -0.2977
 3202SOL     OW 6328   0.317   3.151   4.556  0.0476  0.9274 -0.2436
 3202SOL    HW1 6329   0.260   3.089   4.602  1.2871  0.2162  0.3682
 3202SOL    HW2 6330   0.276   3.161   4.470 -0.9516  0.3727  0.1446
 3203SOL     OW 6331   0.187   2.514   4.601  0.4892  0.4133 -0.1410
 3203SOL    HW1 6332   0.140   2.529   4.683  0.2462  0.5472 -0.3033
 3203SOL    HW2 6333   0.120   2.523   4.533  0.5596 -0.3287 -0.3159
 3204SOL     OW 6334   0.685   0.029   3.511  0.0224 -0.2624  0.1816
 3204SOL    HW1 6335   0.658   0.032   3.603 -0.9707 -1.2899 -0.0474
 3204SOL    HW2 6336   0.707   0.119   3.490 -0.6743  0.1632  1.1667
 3205SOL     OW 6337   2.894   4.100   3.334  0.2523 -0.4366 -0.0870
 3205SOL    HW1 6338   2.813   4.053   3.314  0.7265 -1.6010  0.6221
 3205SOL    HW2 6339   2.873   4.149   3.414  0.1597 -0.5121 -0.0638
 3206SOL     OW 6340   1.295   2.409   2.947  0.4376 -0.7556  0.1085
 3206SOL    HW1 6341   1.216   2.405   2.895  1.4495 -1.3454 -1.4521
 3206SOL    HW2 6342   1.269   2.454   3.028 -1.6188 -1.5765 -0.0533
 3207SOL     OW 6343   2.365   2.448   3.416 -0.0983 -0.1274 -0.6719
 3207SOL    HW1 6344   2.445   2.400   3.396  0.5072  0.1018  0.9923
 3207SOL    HW2 6345   2.302   2.420   3.350  0.5193 -2.4517 -0.3437
 3208SOL     OW 6346   0.298   2.090   3.479  0.0020  0.1356  0.0682
 3208SOL    HW1 6347   0.364   2.043   3.427 -0.3711 -0.4246  0.0913
 3208SOL    HW2 6348   0.224   2.103   3.420 -0.7124 -1.1444  0.6356
 3209SOL     OW 6349   2.847   3.840   4.167 -0.0003  0.4016 -0.7971
 3209SOL    HW1 6350   2.933   3.860   4.204 -0.5680 -1.9402  2.2047
 3209SOL    HW2 6351   2.853   3.748   4.141 -1.0768  0.7351 -2.3461
 3210SOL     OW 6352   1.848   2.009   5.444 -0.2571 -0.1993 -0.5193
 3210SOL    HW1 6353   1.837   1.916   5.425  0.9028 -0.5921  0.6006
 3210SOL    HW2 6354   1.802   2.023   5.527 -1.8866  0.6382 -1.4931
 3211SOL     OW 6355   1.958   1.893   2.690  0.6157 -0.1366  0.2643
 3211SOL    HW1 6356   1.899   1.845   2.749  1.5770 -1.3264  0.3058
 3211SOL    HW2 6357   1.932   1.866   2.602  0.2620  0.3478  0.2178
 3212SOL     OW 6358   2.159   3.066   5.583 -0.0406  0.0712 -0.3601
 3212SOL    HW1 6359   2.155   3.157   5.609 -0.0187  0.1085 -0.4844
 3212SOL    HW2 6360   2.125   3.065   5.493 -0.1919 -0.0661 -0.3023
 3213SOL     OW 6361   3.489   1.586   4.798 -0.1282 -0.0137 -0.1320
 3213SOL    HW1 6362   3.484   1.655   4.864  3.0354  0.3437 -0.1439
 3213SOL    HW2 6363   3.571   1.602   4.752  0.0364 -2.9764 -1.0613
 3214SOL     OW 6364   0.986   0.904   3.105 -0.4621  0.3670 -0.2069
 3214SOL    HW1 6365   0.901   0.930   3.071  0.0873  1.1323 -1.0472
 3214SOL    HW2 6366   1.001   0.961   3.180 -1.6639 -1.3040  1.3928
 3215SOL     OW 6367   3.926   3.956   5.965 -0.0086 -0.0391 -0.4507
 3215SOL    HW1 6368   3.840   3.957   6.006 -0.7574 -0.3814 -1.9544
 3215SOL    HW2 6369   3.956   4.047   5.968 -1.8103  0.7179 -2.6566
 3216SOL     OW 6370   1.645   1.440   4.910 -0.2397  0.3291 -0.0259
 3216SOL    HW1 6371   1.724   1.493   4.920 -0.8798  1.4506 -0.6628
 3216SOL    HW2 6372   1.573   1.504   4.912 -1.2342 -0.7647  1.6623
 3217SOL     OW 6373   0.915   2.262   4.839  0.6522  0.7257 -0.0073
 3217SOL    HW1 6374   0.864   2.276   4.759 -0.2851  1.4318  0.7027
 3217SOL    HW2 6375   0.985   2.328   4.834 -0.7327  2.3179  0.8243
 3218SOL     OW 6376   4.208   2.987   5.272 -0.0381 -0.2279 -0.2681
 3218SOL    HW1 6377   4.219   2.898   5.241  0.2277 -0.8822  1.6033
 3218SOL    HW2 6378   4.113   2.996   5.284 -0.1695  0.1125 -1.4092
 3219SOL     OW 6379   1.506   1.714   6.018  0.8378  0.0272 -0.4128
 3219SOL    HW1 6380   1.506   1.805   6.046  0.5184  0.7469 -2.5762
 3219SOL    HW2 6381   1.599   1.692   6.007  0.8802  0.4130 -0.8361
 3220SOL     OW 6382   1.406   0.200   3.849  0.2179 -0.0920  0.0764
 3220SOL    HW1 6383   1.496   0.174   3.828  0.6662  1.3113  0.1609
 3220SOL    HW2 6384   1.379   0.255   3.775 -0.0095  0.7502  0.7732
 3221SOL     OW 6385   1.068   2.763   5.610 -0.3640 -0.3393  0.1500
 3221SOL    HW1 6386   1.031   2.730   5.692 -1.7340  1.9456  0.5230
 3221SOL    HW2 6387   1.162   2.763   5.625 -0.3808 -2.5824  0.6396
 3222SOL     OW 6388   1.594   1.250   4.120  0.0840  0.7345 -0.0086
 3222SOL    HW1 6389   1.576   1.260   4.213  0.5950 -1.0322  0.3235
 3222SOL    HW2 6390   1.597   1.339   4.086 -0.5266  1.3930  1.5738
 3223SOL     OW 6391   2.705   2.683   5.625 -0.6492 -0.0027  0.1490
 3223SOL    HW1 6392   2.756   2.645   5.696 -0.7606  0.1157  0.2944
 3223SOL    HW2 6393   2.764   2.747   5.584  0.3635 -1.9175 -1.5690
 3224SOL     OW 6394   0.314   0.002   3.800 -0.5337 -0.3188  0.4663
 3224SOL    HW1 6395   0.249   0.071   3.803 -0.6556 -0.2615 -1.9614
 3224SOL    HW2 6396   0.386   0.039   3.749 -0.7168 -2.0261 -1.1157
 3225SOL     OW 6397   4.019   3.735   3.121 -0.3518  0.7066 -0.4228
 3225SOL    HW1 6398   4.001   3.828   3.127  1.0229  1.0539 -1.2144
 3225SOL    HW2 6399   4.071   3.725   3.042  2.8381 -0.1323  1.5816
 3226SOL     OW 6400   1.158   1.382   4.475 -0.3149  0.2628  0.0144
 3226SOL    HW1 6401   1.218   1.310   4.498 -0.4099  0.4417  0.8776
 3226SOL    HW2 6402   1.090   1.378   4.542 -0.5675  0.8757 -0.2040
 3227SOL     OW 6403   1.707   1.973   4.976  0.2083 -0.0949  0.0889
 3227SOL    HW1 6404   1.693   1.888   4.935 -0.0576 -0.3980  0.8029
 3227SOL    HW2 6405   1.687   1.959   5.069 -0.9269  1.0027  0.0341
 3228SOL     OW 6406   1.690   4.056   5.762  0.3043  0.4168  0.1195
 3228SOL    HW1 6407   1.639   4.040   5.842 -0.1481  0.1615 -0.2113
 3228SOL    HW2 6408   1.731   3.971   5.743 -0.9093  0.0098 -0.8192
 3229SOL     OW 6409   1.066   4.267   5.583 -0.6587  0.4843  0.5860
 3229SOL    HW1 6410   0.990   4.299   5.533 -1.2052 -0.1754  0.9782
 3229SOL    HW2 6411   1.057   4.309   5.668  0.6179  2.1068 -0.0340
 3230SOL     OW 6412   4.174   3.088   5.801  0.4833 -0.3134 -0.3570
 3230SOL    HW1 6413   4.125   3.049   5.728 -0.1373  1.9119 -1.2181
 3230SOL    HW2 6414   4.252   3.125   5.760  0.8640 -0.3318  0.3513
 3231SOL     OW 6415   1.528   2.900   3.818  0.2707  0.8797 -0.4916
 3231SOL    HW1 6416   1.477   2.942   3.749 -0.4588  0.8211  0.0026
 3231SOL    HW2 6417   1.543   2.969   3.882  0.2399  0.7297 -0.3226
 3232SOL     OW 6418   0.058   2.257   5.971  0.4203 -0.6753  0.6174
 3232SOL    HW1 6419   0.036   2.341   6.010  1.7219 -0.4077  0.8293
 3232SOL    HW2 6420   0.079   2.278   5.880  0.4554 -0.8174  0.5928
 3233SOL     OW 6421   0.789   2.404   3.680 -0.2628 -0.1957 -0.2500
 3233SOL    HW1 6422   0.727   2.468   3.645 -0.7256  0.5008  1.7074
 3233SOL    HW2 6423   0.743   2.321   3.676 -0.6499  0.0237 -0.4194
 3234SOL     OW 6424   0.941   1.384   3.677  0.5262 -0.1412  0.3102
 3234SOL    HW1 6425   0.847   1.381   3.693  0.5974  0.0998  0.7936
 3234SOL    HW2 6426   0.974   1.301   3.713  0.5207 -0.1518  0.2907
 3235SOL     OW 6427   0.982   4.014   3.349  0.0417  0.1160  0.0308
 3235SOL    HW1 6428   1.027   4.023   3.264  2.0391  2.4886  1.1913
 3235SOL    HW2 6429   1.042   3.962   3.402 -0.1348  0.5178  0.6313
 3236SOL     OW 6430   1.342   3.268   5.567 -0.7752 -0.2878  0.3295
 3236SOL    HW1 6431   1.307   3.356   5.579 -0.3023 -0.0964  0.3458
 3236SOL    HW2 6432   1.404   3.257   5.639  0.7272  0.1724 -0.8480
 3237SOL     OW 6433   2.166   3.554   5.545  0.5823  0.3441  0.2141
 3237SOL    HW1 6434   2.073   3.578   5.539  0.1213 -1.2364  0.5857
 3237SOL    HW2 6435   2.209   3.610   5.481 -0.6712  0.8683 -0.2127
 3238SOL     OW 6436   0.808   3.881   5.465 -0.1877 -0.3229 -0.3357
 3238SOL    HW1 6437   0.870   3.900   5.535 -0.5856 -1.2266  0.2785
 3238SOL    HW2 6438   0.725   3.862   5.509 -0.6736 -0.0462 -1.0960
 3239SOL     OW 6439   1.387   3.703   6.242 -0.2575 -0.3043  0.3539
 3239SOL    HW1 6440   1.463   3.732   6.292 -0.9519 -0.4159  1.5014
 3239SOL    HW2 6441   1.374   3.612   6.269  0.2755 -0.8687 -1.1917
 3240SOL     OW 6442   1.941   1.788   5.951  0.3941 -0.0126  0.6442
 3240SOL    HW1 6443   1.978   1.755   5.869  1.0472  1.7062  0.1841
 3240SOL    HW2 6444   1.864   1.734   5.966 -1.6916  1.5975 -2.8632
 3241SOL     OW 6445   2.370   3.456   4.232  0.3544 -0.4669 -0.6944
 3241SOL    HW1 6446   2.457   3.414   4.232  1.5876  1.4057  3.8170
 3241SOL    HW2 6447   2.323   3.411   4.302 -1.2756  0.4258 -1.1883
 3242SOL     OW 6448   4.280   2.674   5.474 -0.0906 -0.2584 -0.2278
 3242SOL    HW1 6449   4.263   2.711   5.561  1.8048  0.1829  0.0064
 3242SOL    HW2 6450   4.373   2.653   5.475 -0.1593 -0.8017 -1.9605
 3243SOL     OW 6451   0.422   2.924   5.513 -0.4615  0.8201  0.1601
 3243SOL    HW1 6452   0.451   2.954   5.599 -0.4833  0.7220  0.2007
 3243SOL    HW2 6453   0.503   2.914   5.463 -0.2120 -1.5748  0.9248
 3244SOL     OW 6454   0.547   2.629   5.517 -0.4370 -0.4423  0.0158
 3244SOL    HW1 6455   0.598   2.703   5.484 -0.0316 -0.3778  0.7594
 3244SOL    HW2 6456   0.517   2.657   5.604 -1.0455 -0.8045 -0.0695
 3245SOL     OW 6457   0.913   3.064   5.812  0.2992 -0.0877  0.0425
 3245SOL    HW1 6458   0.929   3.145   5.764  1.7679  0.8632  1.9965
 3245SOL    HW2 6459   0.973   3.001   5.773  0.0605  0.0943 -0.6426
 3246SOL     OW 6460   1.940   2.057   5.155  0.0192  0.2338  0.4307
 3246SOL    HW1 6461   2.027   2.096   5.158 -0.8778  2.4766 -0.3611
 3246SOL    HW2 6462   1.902   2.077   5.240  0.0278 -0.1440  0.5251
 3247SOL     OW 6463   2.604   1.746   4.986  0.3985  0.5513 -0.1589
 3247SOL    HW1 6464   2.693   1.783   4.987  0.1483  1.1899 -0.6628
 3247SOL    HW2 6465   2.610   1.668   5.042  1.1090  0.9707  0.3763
 3248SOL     OW 6466   0.002   2.448   4.400 -0.4043  0.0407 -0.1856
 3248SOL    HW1 6467  -0.062   2.494   4.346 -0.6639  0.3253  0.3564
 3248SOL    HW2 6468   0.087   2.476   4.365 -0.5364  1.5112  0.5628
 3249SOL     OW 6469   0.407   3.778   6.439 -0.1847 -0.9383 -0.0140
 3249SOL    HW1 6470   0.466   3.763   6.365  0.1636  2.2626 -0.5459
 3249SOL    HW2 6471   0.332   3.825   6.402 -0.9130 -0.9251  1.3782
 3250SOL     OW 6472   0.358   3.713   5.434  0.4378  0.2476 -0.1514
 3250SOL    HW1 6473   0.285   3.673   5.483  0.5145 -0.8439 -0.9141
 3250SOL    HW2 6474   0.365   3.661   5.354  2.0435  0.3634 -0.1078
 3251SOL     OW 6475   1.636   3.291   6.015  0.3173 -0.3065 -0.2791
 3251SOL    HW1 6476   1.624   3.341   6.096  0.7300  0.7103 -0.8326
 3251SOL    HW2 6477   1.637   3.200   6.044 -0.3730 -0.0051  0.7610
 3252SOL     OW 6478   1.232   1.115   5.921  0.1521  0.0482 -0.3811
 3252SOL    HW1 6479   1.319   1.149   5.898  1.3760 -2.2549  0.4919
 3252SOL    HW2 6480   1.204   1.170   5.995  1.3411  0.1949 -0.0163
 3253SOL     OW 6481   2.915   0.114   4.237 -0.0386 -0.0447  0.1601
 3253SOL    HW1 6482   2.879   0.193   4.198  1.1247  2.4913  3.7329
 3253SOL    HW2 6483   2.985   0.088   4.178 -1.4199  0.5887 -1.8823
 3254SOL     OW 6484   1.979   2.139   4.543 -0.0347 -0.3218 -0.5969
 3254SOL    HW1 6485   1.916   2.075   4.509 -0.8558  0.1566  0.0043
 3254SOL    HW2 6486   2.018   2.096   4.619  0.1093 -0.4758 -0.7560
 3255SOL     OW 6487   3.496   3.523   4.385  0.1712  0.0469  0.3218
 3255SOL    HW1 6488   3.504   3.483   4.298 -0.1898  0.0788  0.2702
 3255SOL    HW2 6489   3.431   3.468   4.430 -0.4191  0.6341  0.2118
 3256SOL     OW 6490   1.026   3.467   6.432  0.3575  0.3397 -0.5371
 3256SOL    HW1 6491   1.076   3.391   6.462 -0.9694 -0.6359 -0.6984
 3256SOL    HW2 6492   0.957   3.430   6.377 -1.7840  1.3779  1.2703
 3257SOL     OW 6493   0.776   1.415   4.412  0.0901 -0.3188 -0.5342
 3257SOL    HW1 6494   0.698   1.468   4.426  0.8383  0.4743  0.7685
 3257SOL    HW2 6495   0.818   1.410   4.498  1.5438 -0.6127 -1.2307
 3258SOL     OW 6496   1.931   3.328   5.625 -0.1113 -0.0624  0.2901
 3258SOL    HW1 6497   1.916   3.417   5.593 -2.8160 -1.2616 -2.2405
 3258SOL    HW2 6498   1.982   3.286   5.556 -1.8252 -1.3766 -0.2404
 3259SOL     OW 6499   0.247   2.709   5.444 -0.3414  0.3836 -0.0686
 3259SOL    HW1 6500   0.298   2.633   5.475 -0.8334 -1.2567 -2.9243
 3259SOL    HW2 6501   0.311   2.779   5.436  0.7706 -0.6077 -0.1893
 3260SOL     OW 6502   1.543   3.265   5.367  0.2703 -0.4086  0.1093
 3260SOL    HW1 6503   1.474   3.266   5.433  0.9380 -1.3762  0.8418
 3260SOL    HW2 6504   1.504   3.219   5.292  0.7049 -2.6878  1.2169
 3261SOL     OW 6505   0.875   2.673   6.086 -0.8019 -0.5404  0.7342
 3261SOL    HW1 6506   0.824   2.729   6.028  0.1960 -0.1127  0.2383
 3261SOL    HW2 6507   0.914   2.608   6.027 -0.4088 -0.5795  1.0334
 3262SOL     OW 6508   1.956   3.310   5.337 -0.0999 -0.4020  0.2215
 3262SOL    HW1 6509   1.871   3.353   5.349  0.4372  1.0702 -0.9227
 3262SOL    HW2 6510   1.998   3.361   5.267  0.9056 -2.3374 -0.6386
 3263SOL     OW 6511   1.157   3.100   5.100 -0.1363  1.0270 -0.1732
 3263SOL    HW1 6512   1.093   3.036   5.068  2.5597 -2.2940  0.4483
 3263SOL    HW2 6513   1.122   3.128   5.185 -0.6801 -0.9495  0.3155
 3264SOL     OW 6514   2.448   2.631   4.406 -0.0240  0.2853 -0.2196
 3264SOL    HW1 6515   2.481   2.644   4.495 -1.5526 -2.2413  0.8463
 3264SOL    HW2 6516   2.526   2.637   4.350  1.2192  0.4737  1.4589
 3265SOL     OW 6517   3.358   1.656   3.296  0.1832 -0.3453 -0.4332
 3265SOL    HW1 6518   3.314   1.594   3.237  1.8943 -0.4608 -1.6550
 3265SOL    HW2 6519   3.290   1.719   3.319 -1.4404 -2.2320  0.2886
 3266SOL     OW 6520   3.605   2.809   4.662  0.0361 -0.3543 -0.2680
 3266SOL    HW1 6521   3.657   2.867   4.718  0.1055 -1.3447  0.7255
 3266SOL    HW2 6522   3.525   2.859   4.644  0.2245  0.1735  0.3186
 3267SOL     OW 6523   3.698   0.673   7.069  0.2654  0.0425  0.1572
 3267SOL    HW1 6524   3.771   0.621   7.102 -0.7333 -1.0426  0.7435
 3267SOL    HW2 6525   3.633   0.608   7.041 -0.1026  0.9744 -1.2401
 3268SOL     OW 6526   1.942   2.920   5.692  0.1904 -0.2236 -0.1247
 3268SOL    HW1 6527   1.978   2.832   5.679  1.3336  0.3479 -1.0705
 3268SOL    HW2 6528   1.999   2.977   5.640 -1.4670  0.8890 -0.8190
 3269SOL     OW 6529   0.931   3.322   5.664  0.2744  0.0271  0.0079
 3269SOL    HW1 6530   0.914   3.282   5.579  1.6276 -0.8902  0.1488
 3269SOL    HW2 6531   1.011   3.373   5.651 -0.9309  2.0830  0.0624
 3270SOL     OW 6532   0.074   3.772   4.024  0.3834 -0.6338 -0.1709
 3270SOL    HW1 6533   0.095   3.678   4.022  2.6311 -0.1864 -0.9995
 3270SOL    HW2 6534   0.152   3.814   3.989 -0.9425  1.5166 -0.6937
 3271SOL     OW 6535   4.248   0.829   2.890  0.0428  0.0722  0.1139
 3271SOL    HW1 6536   4.299   0.796   2.816 -0.0644  0.7971 -0.2891
 3271SOL    HW2 6537   4.224   0.918   2.866 -1.2090 -0.1625  0.4102
 3272SOL     OW 6538   3.693   2.588   5.132 -0.6434 -0.0007  0.2350
 3272SOL    HW1 6539   3.672   2.673   5.171  1.5415 -0.3093  2.2947
 3272SOL    HW2 6540   3.615   2.535   5.147 -1.3515  1.1019  0.5511
 3273SOL     OW 6541   4.111   3.688   6.143  0.4664  0.3552  0.4794
 3273SOL    HW1 6542   4.173   3.718   6.077  0.7236 -1.7901 -0.3427
 3273SOL    HW2 6543   4.027   3.723   6.115  0.7944  0.6173 -0.2037
 3274SOL     OW 6544   3.741   2.893   4.947 -0.1358  0.5434 -0.0283
 3274SOL    HW1 6545   3.672   2.868   5.008  0.4828  0.1107  0.5106
 3274SOL    HW2 6546   3.764   2.983   4.972 -0.3722  0.6204 -0.0869
 3275SOL     OW 6547   2.290   3.158   6.169  0.0929  0.5517  0.8042
 3275SOL    HW1 6548   2.235   3.213   6.226 -1.2524 -0.5101  0.5806
 3275SOL    HW2 6549   2.265   3.068   6.191  0.9374  0.0760 -0.1142
 3276SOL     OW 6550   0.257   2.164   4.679  0.1009  0.1873  0.4186
 3276SOL    HW1 6551   0.325   2.160   4.747  0.3549  2.9370  0.4320
 3276SOL    HW2 6552   0.180   2.198   4.725 -0.0349  1.0710 -0.4293
 3277SOL     OW 6553   1.746   3.401   4.471 -0.2373 -0.3531 -0.5460
 3277SOL    HW1 6554   1.788   3.459   4.534  1.1155 -1.9079  0.0478
 3277SOL    HW2 6555   1.659   3.440   4.457  0.6971  1.9643 -0.4435
 3278SOL     OW 6556   1.646   0.112   3.790 -0.2608  0.1569  0.9901
 3278SOL    HW1 6557   1.718   0.124   3.729  1.0027  0.6788  2.5124
 3278SOL    HW2 6558   1.685   0.066   3.865 -1.4337  0.7036  1.9797
 3279SOL     OW 6559   0.757   3.349   6.624  0.4860 -0.0027 -0.2199
 3279SOL    HW1 6560   0.739   3.401   6.702 -0.0990 -1.1273  0.4147
 3279SOL    HW2 6561   0.826   3.397   6.578 -0.5740  1.7505 -0.0775
 3280SOL     OW 6562   2.263   3.738   5.332 -0.7350 -0.4720  0.0992
 3280SOL    HW1 6563   2.185   3.792   5.341 -0.8319 -0.8468  1.8510
 3280SOL    HW2 6564   2.336   3.800   5.325 -1.0263 -0.1140  0.2297
 3281SOL     OW 6565   1.981   1.692   0.926 -0.3928  0.4067 -0.2447
 3281SOL    HW1 6566   2.034   1.751   0.980  0.0099  1.1444 -1.4097
 3281SOL    HW2 6567   1.900   1.681   0.976  0.8414 -0.8428  1.6336
 3282SOL     OW 6568   0.788   4.274   5.979  0.0505 -0.0328 -0.1022
 3282SOL    HW1 6569   0.820   4.312   6.061  1.0382  1.0495 -0.9563
 3282SOL    HW2 6570   0.693   4.273   5.989  0.0786  1.3349  0.5445
 3283SOL     OW 6571   1.667   3.603   3.791  0.0915  0.6266 -0.0128
 3283SOL    HW1 6572   1.576   3.576   3.778  0.2776  0.2479 -0.5986
 3283SOL    HW2 6573   1.689   3.572   3.879 -0.0013 -0.2994 -0.2965
 3284SOL     OW 6574   1.723   3.341   5.132 -0.0647 -0.1828  0.2113
 3284SOL    HW1 6575   1.756   3.262   5.089  0.3151 -0.4770  1.0137
 3284SOL    HW2 6576   1.660   3.309   5.195 -1.1496  0.3036 -0.5988
 3285SOL     OW 6577   0.564   3.415   2.774 -0.2709 -0.0537 -0.1053
 3285SOL    HW1 6578   0.518   3.499   2.780 -2.0197 -0.9478 -0.4180
 3285SOL    HW2 6579   0.529   3.362   2.845 -0.8581 -1.2659 -1.2441
 3286SOL     OW 6580   2.020   1.622   4.733  0.2548  0.0575 -0.1815
 3286SOL    HW1 6581   1.940   1.615   4.680 -0.3806  3.5160  0.0919
 3286SOL    HW2 6582   2.091   1.610   4.670 -0.3946 -2.1051 -0.5986
 3287SOL     OW 6583   0.089   4.119   4.962 -0.3062 -0.0689  0.4409
 3287SOL    HW1 6584   0.120   4.037   5.001  0.0252 -0.4604 -0.6237
 3287SOL    HW2 6585   0.026   4.152   5.026  2.2557  0.7947  2.7122
 3288SOL     OW 6586   2.616   0.966   4.272  0.0891  0.1589  0.6485
 3288SOL    HW1 6587   2.626   0.962   4.177 -0.0634 -0.9003  0.6653
 3288SOL    HW2 6588   2.701   0.938   4.306  0.1448  0.5423  0.8356
 3289SOL     OW 6589   1.139   0.302   5.178 -0.0719 -0.1936  0.0407
 3289SOL    HW1 6590   1.066   0.359   5.203  0.1419  0.8230 -1.5416
 3289SOL    HW2 6591   1.194   0.298   5.257 -0.9851  0.3696  0.7217
 3290SOL     OW 6592   3.768   3.723   5.130  0.0830 -0.2062  0.5150
 3290SOL    HW1 6593   3.794   3.764   5.212 -0.7001 -0.1576  0.7421
 3290SOL    HW2 6594   3.801   3.633   5.136 -1.0684 -0.5918  1.4378
 3291SOL     OW 6595   4.234   1.950   4.869  0.2502 -0.3516  0.4214
 3291SOL    HW1 6596   4.155   1.989   4.831 -1.6831 -1.8212  2.6792
 3291SOL    HW2 6597   4.276   1.905   4.796 -1.7169 -0.6249 -0.6098
 3292SOL     OW 6598   3.527   3.878   1.642  0.6342  0.0085 -0.5055
 3292SOL    HW1 6599   3.532   3.934   1.565 -1.0634  1.1808  0.1595
 3292SOL    HW2 6600   3.513   3.790   1.608  1.7550  0.2193 -1.5482
 3293SOL     OW 6601   2.457   2.910   6.447 -0.5048  0.1724 -0.2906
 3293SOL    HW1 6602   2.543   2.867   6.445 -0.8175 -0.5166  0.5616
 3293SOL    HW2 6603   2.414   2.883   6.365 -0.6287 -1.0027  0.1540
 3294SOL     OW 6604   0.360   0.010   4.535  0.4246 -0.0038  0.6035
 3294SOL    HW1 6605   0.355  -0.082   4.507 -0.2009 -0.0644  0.8904
 3294SOL    HW2 6606   0.290   0.053   4.485 -1.2711 -0.2639  2.5811
 3295SOL     OW 6607   0.093   3.291   7.015  0.5247  0.4709  0.0459
 3295SOL    HW1 6608   0.065   3.300   6.924 -0.1348 -1.9506 -0.0590
 3295SOL    HW2 6609   0.027   3.235   7.055  1.1417  0.9774  1.8850
 3296SOL     OW 6610   0.038   3.827   3.644  0.2356 -0.7707 -0.0614
 3296SOL    HW1 6611   0.070   3.848   3.556 -0.6472  0.8965 -0.0403
 3296SOL    HW2 6612   0.058   3.905   3.696 -2.0420 -0.4142  0.4092
 3297SOL     OW 6613   1.278   3.788   4.201  0.0941 -0.5272 -0.5060
 3297SOL    HW1 6614   1.370   3.797   4.176  0.1126  0.4843 -0.1206
 3297SOL    HW2 6615   1.278   3.792   4.296 -0.0759 -3.3756 -0.2918
 3298SOL     OW 6616   4.274   3.361   4.522  0.4254  0.6235 -0.2509
 3298SOL    HW1 6617   4.207   3.295   4.507 -0.2202  0.7784  1.6722
 3298SOL    HW2 6618   4.226   3.442   4.537  1.0830  0.9615  0.0836
 3299SOL     OW 6619   2.307   3.811   6.710 -0.1636 -0.5735  0.6932
 3299SOL    HW1 6620   2.311   3.805   6.806 -0.7788 -2.1215  0.6517
 3299SOL    HW2 6621   2.398   3.802   6.681 -0.0422 -0.7417  1.1186
 3300SOL     OW 6622   0.556   3.056   4.470 -0.9265  0.1453 -0.2088
 3300SOL    HW1 6623   0.513   3.006   4.400 -0.9749  0.6227 -0.5245
 3300SOL    HW2 6624   0.484   3.091   4.522 -0.8827 -0.9014  0.5864
 3301SOL     OW 6625   3.984   0.053   4.088 -0.6386 -0.2526  0.0373
 3301SOL    HW1 6626   4.013  -0.038   4.078 -1.8699 -0.7242  0.5366
 3301SOL    HW2 6627   3.982   0.067   4.183  1.5493  1.0048 -0.0273
 3302SOL     OW 6628   2.022   2.331   5.481  0.3069  0.3618  0.1648
 3302SOL    HW1 6629   1.963   2.393   5.437  0.0004 -0.5598 -0.7864
 3302SOL    HW2 6630   2.104   2.378   5.491 -0.1877  1.2153  0.2608
 3303SOL     OW 6631   3.776   2.125   1.504  0.2786 -0.4140 -0.0292
 3303SOL    HW1 6632   3.768   2.189   1.434  0.5380 -2.4681 -2.0489
 3303SOL    HW2 6633   3.774   2.177   1.585 -2.3806  1.8646 -1.4126
 3304SOL     OW 6634   2.468   1.737   4.739 -0.5611 -0.0233 -0.5277
 3304SOL    HW1 6635   2.386   1.770   4.774  0.0203  0.0318  0.8139
 3304SOL    HW2 6636   2.529   1.736   4.813  1.0202  1.0499 -1.7249
 3305SOL     OW 6637   0.606   3.699   4.905 -0.8065 -0.1686 -0.1865
 3305SOL    HW1 6638   0.535   3.752   4.869 -0.0624  1.1343  0.1899
 3305SOL    HW2 6639   0.582   3.609   4.884 -2.3346  0.2728 -0.4634
 3306SOL     OW 6640   1.008   0.699   5.449 -0.3754  0.9861 -0.2131
 3306SOL    HW1 6641   0.930   0.754   5.456 -0.3810  0.9334  0.1529
 3306SOL    HW2 6642   1.009   0.648   5.531 -0.3225  0.5093 -0.5039
 3307SOL     OW 6643   0.916   0.329   5.481  0.6164 -0.2853 -0.1234
 3307SOL    HW1 6644   0.924   0.244   5.439 -2.5336 -1.6241  1.6967
 3307SOL    HW2 6645   0.831   0.362   5.453  0.2960  0.6873  1.8680
 3308SOL     OW 6646   1.283   3.411   3.984  0.0073  0.3599 -0.9081
 3308SOL    HW1 6647   1.228   3.333   3.984 -0.3823  0.4835  2.5192
 3308SOL    HW2 6648   1.221   3.484   3.981  0.2554  0.5452 -1.7344
 3309SOL     OW 6649   0.810   0.631   5.930  0.1731 -0.1274  0.2310
 3309SOL    HW1 6650   0.804   0.609   5.837 -0.6413 -0.3364  0.3250
 3309SOL    HW2 6651   0.721   0.658   5.954  0.4435  0.2149  0.8803
 3310SOL     OW 6652   1.430   4.285   5.224  0.3003  0.0475  0.3122
 3310SOL    HW1 6653   1.384   4.302   5.306  1.5043  1.7383  0.6871
 3310SOL    HW2 6654   1.498   4.222   5.247  1.4397  1.4581  0.9414
 3311SOL     OW 6655   0.787   0.216   5.686 -0.0599  0.4671 -0.4023
 3311SOL    HW1 6656   0.862   0.177   5.729 -0.4656  1.1023  0.9553
 3311SOL    HW2 6657   0.821   0.250   5.603  1.2925  1.2608  0.4348
 3312SOL     OW 6658   0.797   2.035   5.514 -0.6119  0.4479 -0.5416
 3312SOL    HW1 6659   0.798   2.094   5.438 -1.2894  0.8235 -0.2647
 3312SOL    HW2 6660   0.734   2.074   5.574  0.6810  0.7453  0.6902
 3313SOL     OW 6661   0.804   0.117   4.315  0.2883 -0.6358 -0.3563
 3313SOL    HW1 6662   0.800   0.023   4.297  1.4832 -0.6810 -0.4628
 3313SOL    HW2 6663   0.890   0.145   4.281 -0.4803  0.7056 -1.2839
 3314SOL     OW 6664   2.687   3.118   5.444  0.0032 -0.2131  1.0581
 3314SOL    HW1 6665   2.655   3.183   5.507 -2.6683 -1.1050  0.7745
 3314SOL    HW2 6666   2.625   3.045   5.452  1.8485 -1.9979  0.1039
 3315SOL     OW 6667   0.872   3.241   2.465  0.5803 -0.1308 -0.2279
 3315SOL    HW1 6668   0.786   3.207   2.488  0.3894  0.1428 -0.5228
 3315SOL    HW2 6669   0.877   3.325   2.510  0.3266  0.2687 -0.9210
 3316SOL     OW 6670   0.321   3.499   3.904  0.0400 -0.5201  0.4620
 3316SOL    HW1 6671   0.384   3.571   3.903  0.3772 -0.8121  0.1107
 3316SOL    HW2 6672   0.358   3.435   3.844 -0.9882 -0.3701 -0.3545
 3317SOL     OW 6673   0.518   2.261   3.585 -0.1328  0.2112 -0.0551
 3317SOL    HW1 6674   0.589   2.199   3.570 -0.5777 -0.5933  1.0444
 3317SOL    HW2 6675   0.439   2.214   3.560 -0.2357  1.6424 -2.8479
 3318SOL     OW 6676   0.822   3.022   4.580 -0.1615 -0.3916 -0.5087
 3318SOL    HW1 6677   0.737   3.004   4.540 -0.1283  0.0806 -0.7920
 3318SOL    HW2 6678   0.881   2.957   4.542 -0.3121 -0.4830 -0.5866
 3319SOL     OW 6679   1.809   3.205   6.345  0.3290 -0.0066 -0.3675
 3319SOL    HW1 6680   1.772   3.124   6.310  1.1079  0.1692 -1.6531
 3319SOL    HW2 6681   1.902   3.187   6.356  0.2602  0.2504  0.7801
 3320SOL     OW 6682   0.377   1.186   2.561  0.2909  0.2942 -0.0604
 3320SOL    HW1 6683   0.347   1.101   2.529 -0.2699 -0.2273  1.7564
 3320SOL    HW2 6684   0.463   1.169   2.598  0.3892  0.6319 -0.1286
 3321SOL     OW 6685   3.540   3.087   5.146 -0.2935  0.4160  0.5982
 3321SOL    HW1 6686   3.452   3.103   5.111  0.1533  0.2718 -0.6327
 3321SOL    HW2 6687   3.582   3.173   5.146 -0.9291  0.7821  2.6954
 3322SOL     OW 6688   2.216   2.882   4.528 -0.1609 -0.5462 -0.6838
 3322SOL    HW1 6689   2.222   2.971   4.492  0.8298 -0.3885 -0.1777
 3322SOL    HW2 6690   2.174   2.831   4.459 -1.1158  0.3978 -0.8290
 3323SOL     OW 6691   1.186   1.526   3.200  0.3047 -0.1933  0.2641
 3323SOL    HW1 6692   1.181   1.544   3.106  0.0643  0.5543  0.4139
 3323SOL    HW2 6693   1.165   1.433   3.207 -2.1182  0.2435 -0.2147
 3324SOL     OW 6694   1.509   3.377   3.806  0.2329  0.0075 -0.2208
 3324SOL    HW1 6695   1.447   3.383   3.879 -0.3661  0.4592 -0.7483
 3324SOL    HW2 6696   1.542   3.287   3.810 -1.2973 -0.6118 -0.5841
 3325SOL     OW 6697   0.004   2.895   5.932  0.3843 -0.1111  0.0545
 3325SOL    HW1 6698  -0.037   2.978   5.908  1.3172  0.2978 -0.1567
 3325SOL    HW2 6699  -0.002   2.891   6.027  0.1502  0.0978  0.0481
 3326SOL     OW 6700   3.414   2.505   4.825  0.2595  0.4372  0.0024
 3326SOL    HW1 6701   3.332   2.519   4.777  1.2033  1.2408 -1.4583
 3326SOL    HW2 6702   3.402   2.421   4.869 -1.0266  0.1419 -0.8620
 3327SOL     OW 6703   4.223   3.635   5.488 -0.3062  0.3460  0.0919
 3327SOL    HW1 6704   4.154   3.573   5.512 -0.1656  0.2392  0.2171
 3327SOL    HW2 6705   4.288   3.628   5.557  0.6182 -0.7556 -0.8467
 3328SOL     OW 6706   1.050   3.036   3.592  0.1462  0.4515 -0.1628
 3328SOL    HW1 6707   0.967   3.023   3.545  1.0364 -0.5764 -1.5058
 3328SOL    HW2 6708   1.073   2.950   3.626  1.0753  0.5528 -0.5053
 3329SOL     OW 6709   1.496   2.566   5.700 -0.1842 -0.3855 -0.4036
 3329SOL    HW1 6710   1.515   2.578   5.793  1.2228  0.4365 -0.7584
 3329SOL    HW2 6711   1.435   2.493   5.696 -0.5332 -0.1962  1.1864
 3330SOL     OW 6712   1.458   1.488   5.704 -0.7282 -0.2165 -0.2766
 3330SOL    HW1 6713   1.367   1.506   5.726 -0.7289 -0.9021  0.3164
 3330SOL    HW2 6714   1.489   1.432   5.775  0.3144  0.4404 -0.2036
 3331SOL     OW 6715   2.807   3.218   3.595  0.0089 -0.2342  0.6710
 3331SOL    HW1 6716   2.868   3.264   3.652  1.6670 -1.9094  0.3877
 3331SOL    HW2 6717   2.862   3.152   3.551 -1.3636  0.3303 -2.1291
 3332SOL     OW 6718   1.189   2.772   6.354  0.6302  0.1714  0.7254
 3332SOL    HW1 6719   1.275   2.736   6.334  1.4022  1.9104  0.8212
 3332SOL    HW2 6720   1.176   2.754   6.447 -0.3539 -2.5137  0.1747
 3333SOL     OW 6721   3.779   2.506   6.188 -0.0351 -0.7684  0.3492
 3333SOL    HW1 6722   3.837   2.563   6.137  0.3284 -0.7606  0.7624
 3333SOL    HW2 6723   3.754   2.436   6.129 -2.1346  0.8543 -0.8606
 3334SOL     OW 6724   3.908   2.644   5.973  0.2375  0.2584 -0.7434
 3334SOL    HW1 6725   3.929   2.621   5.883 -0.3255 -2.8748 -0.1907
 3334SOL    HW2 6726   3.992   2.641   6.019  0.0403 -2.1221 -0.4599
 3335SOL     OW 6727   2.579   2.961   5.728  0.5626 -0.0756 -0.0087
 3335SOL    HW1 6728   2.653   2.944   5.787 -0.9104  0.0476  2.0095
 3335SOL    HW2 6729   2.591   3.052   5.700  0.5155  0.3786  1.3675
 3336SOL     OW 6730   2.402   4.149   6.877  0.2610 -0.2547 -0.3143
 3336SOL    HW1 6731   2.425   4.102   6.797 -1.3335  0.8959 -1.5010
 3336SOL    HW2 6732   2.394   4.240   6.849 -0.8920  0.0830  1.0404
 3337SOL     OW 6733   2.013   3.048   5.341  0.3461 -0.1821  0.7949
 3337SOL    HW1 6734   2.017   3.142   5.325  2.8737  0.2245  3.0885
 3337SOL    HW2 6735   2.020   3.009   5.254  1.9028  1.7635 -0.0301
 3338SOL     OW 6736   2.222   2.091   6.437 -0.5883  0.2967 -0.4256
 3338SOL    HW1 6737   2.185   2.073   6.524  0.0589 -0.3457 -0.2709
 3338SOL    HW2 6738   2.156   2.145   6.393 -1.0687  0.3539  0.3462
 3339SOL     OW 6739   3.123   2.785   6.418 -0.3282 -0.0069 -0.4519
 3339SOL    HW1 6740   3.088   2.852   6.476 -0.1252  0.3405 -0.7292
 3339SOL    HW2 6741   3.051   2.724   6.405  0.0651 -0.9737  1.4578
 3340SOL     OW 6742   2.694   1.842   5.423 -0.2232 -0.5829 -0.0921
 3340SOL    HW1 6743   2.613   1.793   5.408  0.9264 -2.4405 -0.6401
 3340SOL    HW2 6744   2.680   1.888   5.505 -2.0712 -0.3055 -0.5208
 3341SOL     OW 6745   2.407   1.765   7.191 -0.1942  0.0134  0.3201
 3341SOL    HW1 6746   2.465   1.745   7.117  0.2760  0.0552  0.6702
 3341SOL    HW2 6747   2.332   1.809   7.151 -0.0484 -0.1601 -0.1566
 3342SOL     OW 6748   2.571   1.171   7.282  0.2198 -0.4193 -0.0391
 3342SOL    HW1 6749   2.647   1.135   7.328 -1.2685 -1.6415  1.5683
 3342SOL    HW2 6750   2.557   1.257   7.321  0.3809 -0.4528  0.0916
 3343SOL     OW 6751   2.259   2.995   7.448  0.3111 -0.3758  0.1963
 3343SOL    HW1 6752   2.306   3.078   7.458  1.1681 -0.9611  1.2431
 3343SOL    HW2 6753   2.173   3.020   7.415  0.3855  0.9782  0.9721
 3344SOL     OW 6754   0.684   1.867   6.050  0.2602 -0.7387  0.3891
 3344SOL    HW1 6755   0.606   1.812   6.047 -0.9179  0.9085 -0.5555
 3344SOL    HW2 6756   0.684   1.914   5.966  0.2250  1.9462  1.7817
 3345SOL     OW 6757   0.177   2.930   5.632 -0.0343  0.0180  0.3414
 3345SOL    HW1 6758   0.163   2.839   5.660  1.3624 -0.2829  0.1474
 3345SOL    HW2 6759   0.262   2.928   5.587  0.5282  1.6052  1.2611
 3346SOL     OW 6760   4.244   2.685   6.734  0.1996  0.6440 -0.0748
 3346SOL    HW1 6761   4.236   2.772   6.695  0.8880  0.6071 -0.3110
 3346SOL    HW2 6762   4.238   2.626   6.659  0.2177  0.5079  0.0320
 3347SOL     OW 6763   2.480   2.554   4.856 -0.1040 -0.3934 -0.6952
 3347SOL    HW1 6764   2.455   2.499   4.931 -0.5602  0.8951  0.1375
 3347SOL    HW2 6765   2.498   2.492   4.786  0.8723 -1.6902  0.6322
 3348SOL     OW 6766   1.617   4.080   5.368 -0.2773 -0.5969  0.1179
 3348SOL    HW1 6767   1.558   4.006   5.385 -1.1035  0.3565  1.5669
 3348SOL    HW2 6768   1.631   4.120   5.454  0.4226  0.7442 -0.5894
 3349SOL     OW 6769   0.371   3.771   5.092  0.1246  0.5532  0.5224
 3349SOL    HW1 6770   0.411   3.695   5.134  2.0657  0.1398 -1.7868
 3349SOL    HW2 6771   0.443   3.834   5.083 -1.0667  2.0326  0.9732
 3350SOL     OW 6772   2.576   0.775   5.908  0.6195 -0.3445  0.3882
 3350SOL    HW1 6773   2.651   0.729   5.946  0.9189  0.2067  0.4836
 3350SOL    HW2 6774   2.533   0.710   5.853  1.8008 -0.3785 -0.5416
 3351SOL     OW 6775   1.470   2.010   6.253  0.0206  0.7238  0.3461
 3351SOL    HW1 6776   1.388   1.989   6.207 -0.0836  0.3100  0.7202
 3351SOL    HW2 6777   1.443   2.062   6.328  0.1165  0.7269  0.3786
 3352SOL     OW 6778   4.271   0.237   6.736 -0.4626  0.1288  0.0338
 3352SOL    HW1 6779   4.289   0.314   6.681  1.3832 -1.4227 -1.6969
 3352SOL    HW2 6780   4.201   0.191   6.689 -0.4977 -0.0140  0.2288
 3353SOL     OW 6781   3.384   3.215   5.382  0.1487 -0.0055  0.0850
 3353SOL    HW1 6782   3.389   3.124   5.353 -0.1912 -0.6656  1.9487
 3353SOL    HW2 6783   3.327   3.258   5.318  1.5456 -0.6987 -1.6852
 3354SOL     OW 6784   2.172   2.365   5.830  0.1880 -0.1854 -0.8563
 3354SOL    HW1 6785   2.175   2.342   5.737  0.1668  0.5527 -1.0493
 3354SOL    HW2 6786   2.261   2.395   5.850  0.1808 -0.3019 -0.6507
 3355SOL     OW 6787   1.391   3.438   3.570 -0.1749 -0.3799 -0.0468
 3355SOL    HW1 6788   1.373   3.345   3.558  0.4754 -0.5094 -0.0081
 3355SOL    HW2 6789   1.420   3.446   3.660  0.2076 -0.2027 -0.1849
 3356SOL     OW 6790   3.072   3.662   6.747 -0.1278  0.1473 -0.3339
 3356SOL    HW1 6791   3.061   3.589   6.686  0.4681  1.4266 -2.0509
 3356SOL    HW2 6792   3.139   3.632   6.808 -0.9728 -1.2886 -0.0733
 3357SOL     OW 6793   3.197   2.677   5.847 -0.2087 -0.1413  0.0132
 3357SOL    HW1 6794   3.278   2.655   5.801  0.1239 -0.0270  0.5411
 3357SOL    HW2 6795   3.222   2.744   5.910 -1.1989  1.8081 -1.5522
 3358SOL     OW 6796   3.013   1.421   7.683  0.1797 -0.0885  0.2614
 3358SOL    HW1 6797   3.093   1.456   7.722  0.4549 -0.7605  0.3198
 3358SOL    HW2 6798   2.951   1.493   7.686  0.6139  0.2706  0.7292
 3359SOL     OW 6799   0.926   2.231   6.626  0.4729 -0.2328 -0.2998
 3359SOL    HW1 6800   0.877   2.313   6.622  2.5618  1.2665  1.8805
 3359SOL    HW2 6801   0.862   2.167   6.657 -0.4972  1.3449  1.1931
 3360SOL     OW 6802   3.421   3.214   6.565  0.2712 -0.4625  0.1409
 3360SOL    HW1 6803   3.503   3.167   6.551  0.1347 -0.5323 -0.4497
 3360SOL    HW2 6804   3.359   3.147   6.594  0.0097 -0.7005 -0.9479
 3361SOL     OW 6805   3.759   2.589   7.400 -0.7463  0.1017  0.4431
 3361SOL    HW1 6806   3.803   2.563   7.481  0.6775  2.0897  0.3735
 3361SOL    HW2 6807   3.740   2.506   7.356  2.6827 -0.9470  0.6510
 3362SOL     OW 6808   0.763   4.148   6.686 -0.1040 -0.8930  0.4236
 3362SOL    HW1 6809   0.808   4.210   6.628  0.0911 -0.5277  0.9584
 3362SOL    HW2 6810   0.717   4.089   6.627  0.6069 -0.9136 -0.1178
 3363SOL     OW 6811   2.315   3.872   7.267 -0.0181  0.4122 -0.7330
 3363SOL    HW1 6812   2.353   3.820   7.337 -0.4800 -0.5906 -1.2144
 3363SOL    HW2 6813   2.283   3.951   7.311 -1.1497 -0.6139  0.3557
 3364SOL     OW 6814   0.652   1.901   6.442  0.2888 -0.0327 -0.8666
 3364SOL    HW1 6815   0.619   1.980   6.401  1.0009 -0.0519 -1.5008
 3364SOL    HW2 6816   0.575   1.859   6.479  0.0249  1.4698  0.4038
 3365SOL     OW 6817   1.622   2.885   5.063 -0.3758 -0.2609  0.3415
 3365SOL    HW1 6818   1.647   2.799   5.030 -0.6527 -0.2084 -0.0147
 3365SOL    HW2 6819   1.657   2.888   5.152  0.6487 -0.2818 -0.0478
 3366SOL     OW 6820   2.591   3.522   6.150  0.0979  0.3643  0.1562
 3366SOL    HW1 6821   2.527   3.586   6.183  1.0199  0.9099  0.9502
 3366SOL    HW2 6822   2.671   3.573   6.137  0.9599 -0.6723  1.1357
 3367SOL     OW 6823   2.344   1.882   6.743  0.2421 -0.3804 -0.0715
 3367SOL    HW1 6824   2.364   1.884   6.836 -2.2614 -0.9770  0.5582
 3367SOL    HW2 6825   2.268   1.939   6.733 -0.7289 -1.8294 -1.3954
 3368SOL     OW 6826   2.253   1.457   7.347 -0.3716 -0.0623  0.4794
 3368SOL    HW1 6827   2.336   1.504   7.344  0.7742 -2.0260 -0.5786
 3368SOL    HW2 6828   2.193   1.517   7.390  1.6456  1.3367  1.4886
 3369SOL     OW 6829   1.229   2.595   5.875 -0.0430  0.0897 -0.0476
 3369SOL    HW1 6830   1.173   2.548   5.936 -1.5410  0.4468 -1.0946
 3369SOL    HW2 6831   1.254   2.530   5.810  1.1954 -0.1836  0.6600
 3370SOL     OW 6832   2.713   2.818   6.343  0.4779  0.3724  0.1864
 3370SOL    HW1 6833   2.762   2.739   6.366  0.5222  0.2260 -0.3913
 3370SOL    HW2 6834   2.754   2.887   6.394  0.9198  0.1508  0.1398
 3371SOL     OW 6835   2.023   2.449   6.541  0.5961 -0.1102  0.1800
 3371SOL    HW1 6836   1.994   2.535   6.573  0.9673 -0.7855  2.5503
 3371SOL    HW2 6837   2.083   2.418   6.608  0.6256 -2.1509 -0.7266
 3372SOL     OW 6838   0.954   2.619   7.681  0.4028  0.0366 -0.0747
 3372SOL    HW1 6839   0.912   2.704   7.697 -1.5290 -0.7299 -0.7766
 3372SOL    HW2 6840   0.998   2.597   7.763  0.8840  1.6604  0.1383
 3373SOL     OW 6841   2.966   3.125   5.343  0.5434  0.1980  0.4383
 3373SOL    HW1 6842   2.877   3.092   5.354 -0.5802  2.4519 -1.1484
 3373SOL    HW2 6843   2.956   3.221   5.345  2.6074  0.5378 -1.9053
 3374SOL     OW 6844   0.619   2.866   7.398  0.9520 -0.2184  0.1993
 3374SOL    HW1 6845   0.684   2.805   7.362 -0.5288 -1.3407 -0.6777
 3374SOL    HW2 6846   0.658   2.952   7.385  1.7345 -0.7806 -1.4880
 3375SOL     OW 6847   0.402   3.393   7.687  0.0123  0.0575 -0.0347
 3375SOL    HW1 6848   0.348   3.472   7.697 -0.6531 -0.5700  1.8190
 3375SOL    HW2 6849   0.492   3.426   7.688 -0.2693  0.8990 -0.6442
 3376SOL     OW 6850   1.397   1.626   7.704 -0.0500 -0.4658  0.2834
 3376SOL    HW1 6851   1.453   1.620   7.627  0.7277 -2.6797  0.9534
 3376SOL    HW2 6852   1.362   1.538   7.715  0.0554 -0.2684  2.6119
 3377SOL     OW 6853   0.674   2.539   5.101  0.0453 -0.1764  0.1702
 3377SOL    HW1 6854   0.621   2.578   5.032 -1.2559 -0.8717  0.7412
 3377SOL    HW2 6855   0.663   2.444   5.089  0.5005 -0.3183  0.8169
 3378SOL     OW 6856   0.399   1.941   6.252 -0.7838  0.1751 -0.3855
 3378SOL    HW1 6857   0.324   1.932   6.192 -0.4147 -0.9079 -0.7202
 3378SOL    HW2 6858   0.451   2.012   6.216 -0.0765 -1.0647 -1.9342
 3379SOL     OW 6859   0.404   3.510   7.398  0.3689  0.9169 -0.2769
 3379SOL    HW1 6860   0.353   3.506   7.479  0.1083  1.8606 -0.3812
 3379SOL    HW2 6861   0.423   3.419   7.377  0.4794  0.6614  0.8669
 3380SOL     OW 6862   1.287   3.870   6.057  0.2389 -0.6626  0.5068
 3380SOL    HW1 6863   1.335   3.814   6.117  2.3220  0.0493 -0.4119
 3380SOL    HW2 6864   1.255   3.811   5.988 -0.7673 -1.2330  1.4448
 3381SOL     OW 6865   3.534   2.466   7.197  0.0849 -0.1530 -0.1705
 3381SOL    HW1 6866   3.512   2.426   7.113 -2.8211 -0.5867  0.6852
 3381SOL    HW2 6867   3.597   2.406   7.237  0.6712 -0.4951 -1.5354
 3382SOL     OW 6868   2.771   2.897   4.243 -0.0009  0.0302 -0.7701
 3382SOL    HW1 6869   2.726   2.910   4.326 -0.4627 -1.1611 -0.8145
 3382SOL    HW2 6870   2.760   2.804   4.224  2.3089 -0.2804 -0.8815
 3383SOL     OW 6871   2.752   3.130   7.039  0.8396 -0.0505 -0.1566
 3383SOL    HW1 6872   2.777   3.038   7.030 -1.8834 -1.1415  1.8987
 3383SOL    HW2 6873   2.716   3.154   6.954  1.2184 -1.0011 -0.6006
 3384SOL     OW 6874   2.298   1.881   6.297  0.0291  0.6525 -0.8030
 3384SOL    HW1 6875   2.255   1.907   6.216  0.5970  0.6266 -1.1128
 3384SOL    HW2 6876   2.294   1.959   6.352  1.4745  1.3475 -1.6271
 3385SOL     OW 6877   0.882   3.652   7.686 -0.1048 -0.3127 -0.4839
 3385SOL    HW1 6878   0.798   3.676   7.724 -0.0663 -1.5762  0.4822
 3385SOL    HW2 6879   0.897   3.716   7.617 -1.6642  0.1639 -0.4070
 3386SOL     OW 6880   1.114   4.076   5.817 -0.6506  0.2718 -0.6385
 3386SOL    HW1 6881   1.146   4.123   5.894 -0.8939 -1.7056  0.7347
 3386SOL    HW2 6882   1.175   4.098   5.748  1.3755 -0.2519  0.8939
 3387SOL     OW 6883   2.265   3.089   6.561  0.0889  0.3115  0.1646
 3387SOL    HW1 6884   2.237   3.150   6.492 -0.5434 -1.2308 -1.0169
 3387SOL    HW2 6885   2.328   3.031   6.517 -1.0687 -1.3337  0.5429
 3388SOL     OW 6886   1.086   1.710   6.298  0.4133  0.6690  0.1910
 3388SOL    HW1 6887   1.107   1.745   6.385 -0.4979 -1.2875  1.2565
 3388SOL    HW2 6888   0.991   1.701   6.299  0.4849 -0.2480 -0.6764
 3389SOL     OW 6889   1.871   2.563   5.404 -0.0681 -0.3074 -0.1069
 3389SOL    HW1 6890   1.811   2.590   5.474 -1.7035 -1.4722 -0.9814
 3389SOL    HW2 6891   1.904   2.645   5.367 -0.1409  0.3410  1.2031
 3390SOL     OW 6892   1.328   1.339   6.927  0.6980 -0.1542 -0.5452
 3390SOL    HW1 6893   1.389   1.282   6.974 -0.1015  0.5273  1.3963
 3390SOL    HW2 6894   1.305   1.408   6.990 -1.8660 -0.2295 -1.2684
 3391SOL     OW 6895   2.594   1.761   6.090 -0.6157 -0.0611 -0.0279
 3391SOL    HW1 6896   2.631   1.845   6.062 -0.0130 -0.4366 -0.3628
 3391SOL    HW2 6897   2.538   1.784   6.165  0.0453  0.5602  0.2920
 3392SOL     OW 6898   0.649   4.006   6.458 -0.2308  0.2887 -0.6118
 3392SOL    HW1 6899   0.649   3.934   6.521  0.4537  1.4816  0.8318
 3392SOL    HW2 6900   0.560   4.040   6.460  0.4630  2.4113  2.3790
 3393SOL     OW 6901   3.917   2.767   7.280 -0.6610 -0.0535 -0.1162
 3393SOL    HW1 6902   3.912   2.721   7.196 -3.3171  0.2045 -0.1904
 3393SOL    HW2 6903   3.845   2.730   7.332  0.8076 -0.0955  2.0317
 3394SOL     OW 6904   1.688   1.983   6.596 -0.2984 -0.3976  0.5575
 3394SOL    HW1 6905   1.654   1.932   6.522 -1.0601 -0.6987  1.0989
 3394SOL    HW2 6906   1.763   2.030   6.560 -1.2169  0.2068 -0.6712
 3395SOL     OW 6907   3.159   2.559   6.186  0.0264  0.3003 -0.3113
 3395SOL    HW1 6908   3.137   2.648   6.213 -0.5992  0.1329 -0.2484
 3395SOL    HW2 6909   3.253   2.561   6.169  0.4889  0.4153  1.9456
 3396SOL     OW 6910   2.955   1.223   7.170 -0.2291 -0.0243  0.6620
 3396SOL    HW1 6911   2.990   1.141   7.204  1.6822  1.1534  1.7273
 3396SOL    HW2 6912   2.957   1.283   7.244  1.7116  1.9443 -0.8295
 3397SOL     OW 6913   0.759   3.745   7.127  0.3656 -0.4966 -0.6474
 3397SOL    HW1 6914   0.728   3.707   7.210 -1.3361  0.9979 -0.5233
 3397SOL    HW2 6915   0.802   3.827   7.152 -2.0806  1.1026 -1.2781
 3398SOL     OW 6916   2.166   2.078   4.947 -0.2672 -0.8298  0.1323
 3398SOL    HW1 6917   2.170   2.134   5.025  0.3787 -1.8397  0.8691
 3398SOL    HW2 6918   2.073   2.067   4.930 -0.4055  0.8958 -0.3728
 3399SOL     OW 6919   0.527   1.851   7.721 -0.6573  0.0260  0.2195
 3399SOL    HW1 6920   0.601   1.794   7.742 -1.2067 -1.0828 -0.7702
 3399SOL    HW2 6921   0.561   1.940   7.734  0.9976 -0.4372 -0.6669
 3400SOL     OW 6922   0.817   3.695   6.859  0.1386  0.0758 -0.0183
 3400SOL    HW1 6923   0.797   3.708   6.952 -1.9815 -1.2161 -0.2269
 3400SOL    HW2 6924   0.809   3.600   6.846 -2.2384  0.4604 -2.0210
 3401SOL     OW 6925   4.147   3.334   6.270  0.0255  0.2064 -0.5696
 3401SOL    HW1 6926   4.102   3.417   6.286 -0.0199 -0.0741  0.9449
 3401SOL    HW2 6927   4.196   3.349   6.189 -1.9240  0.8678 -1.6996
 3402SOL     OW 6928   3.669   2.875   6.320 -0.4414 -0.4279  0.0798
 3402SOL    HW1 6929   3.701   2.791   6.355 -0.6127 -0.5135  0.0324
 3402SOL    HW2 6930   3.736   2.901   6.257  1.1228  0.9151  2.1654
 3403SOL     OW 6931   0.621   2.684   5.785 -0.0711 -0.6998 -0.2756
 3403SOL    HW1 6932   0.650   2.768   5.819  0.1336 -1.3112  1.1374
 3403SOL    HW2 6933   0.569   2.646   5.856 -2.4409 -0.6331 -1.8709
 3404SOL     OW 6934   2.105   3.272   6.856 -0.2920  0.1271  0.1324
 3404SOL    HW1 6935   2.127   3.179   6.847 -0.0878  0.1931 -0.0451
 3404SOL    HW2 6936   2.019   3.272   6.899 -0.5626 -0.1567 -0.3990
 3405SOL     OW 6937   1.891   2.720   6.532 -0.0939  0.0594 -0.1387
 3405SOL    HW1 6938   1.961   2.782   6.511  2.1321 -1.4339  2.2116
 3405SOL    HW2 6939   1.827   2.771   6.581 -0.3769  1.3220 -1.7642
 3406SOL     OW 6940   0.717   3.899   6.085  0.1064 -0.4271 -0.0408
 3406SOL    HW1 6941   0.742   3.932   5.999  2.7376 -0.6912  0.5081
 3406SOL    HW2 6942   0.801   3.890   6.132 -1.1242 -1.3980  2.1366
 3407SOL     OW 6943   1.280   0.510   6.351 -0.7774 -0.0815 -0.1938
 3407SOL    HW1 6944   1.364   0.526   6.394  0.0518 -2.6202 -0.7156
 3407SOL    HW2 6945   1.262   0.592   6.304 -0.0878  1.5739  2.2237
 3408SOL     OW 6946   0.756   2.347   5.868 -0.4478 -0.4574 -0.3133
 3408SOL    HW1 6947   0.779   2.366   5.959 -1.8270 -0.8371  0.1497
 3408SOL    HW2 6948   0.807   2.409   5.816 -0.4835  0.5367  0.7999
 3409SOL     OW 6949   3.773   2.601   6.983  0.2192 -0.6046 -0.3046
 3409SOL    HW1 6950   3.855   2.603   7.032  0.2427  0.5717 -0.3503
 3409SOL    HW2 6951   3.776   2.680   6.928  0.0377 -1.6915 -1.9609
 3410SOL     OW 6952   0.012   3.861   6.769  0.1651  0.2663 -0.3328
 3410SOL    HW1 6953   0.080   3.810   6.724  0.4036 -3.0072  3.2460
 3410SOL    HW2 6954   0.061   3.928   6.817  0.8977 -1.4772  1.4742
 3411SOL     OW 6955   1.165   2.355   6.729 -0.4681  0.3247  0.5978
 3411SOL    HW1 6956   1.077   2.328   6.705  0.7845 -1.7673 -2.3271
 3411SOL    HW2 6957   1.185   2.307   6.809 -1.3379 -0.7156  0.2132
 3412SOL     OW 6958   3.012   3.126   6.016  0.1362  0.0384  0.0447
 3412SOL    HW1 6959   3.100   3.161   6.001 -0.0898  0.2901 -0.7301
 3412SOL    HW2 6960   2.963   3.148   5.937 -0.3217 -1.0606 -0.0053
 3413SOL     OW 6961   0.372   3.082   6.493 -0.4592  0.1400  0.7147
 3413SOL    HW1 6962   0.415   3.001   6.465 -0.3792 -0.2671  1.9567
 3413SOL    HW2 6963   0.347   3.065   6.584 -1.4492  1.1111  0.6368
 3414SOL     OW 6964   1.742   2.419   5.895 -0.5707 -0.1757 -0.6137
 3414SOL    HW1 6965   1.792   2.398   5.815 -1.2346 -0.1053 -1.0560
 3414SOL    HW2 6966   1.749   2.514   5.903 -0.0829 -0.2323 -0.2960
 3415SOL     OW 6967   4.042   2.986   7.352 -0.2369 -0.1294  0.1275
 3415SOL    HW1 6968   3.995   2.906   7.327 -0.6692 -0.4112  1.7286
 3415SOL    HW2 6969   4.076   2.967   7.440  1.0267  0.8744 -0.1250
 3416SOL     OW 6970   4.121   3.946   7.155  0.2507  0.3216 -0.6951
 3416SOL    HW1 6971   4.052   3.942   7.222  0.1698 -1.2509 -0.8356
 3416SOL    HW2 6972   4.169   3.863   7.165  1.6814  1.0799 -1.0699
 3417SOL     OW 6973   0.017   3.929   6.036 -0.4317  0.7093  0.1431
 3417SOL    HW1 6974   0.105   3.943   6.001 -0.1985 -0.1206  0.3559
 3417SOL    HW2 6975   0.032   3.879   6.117 -1.0660  1.0588  0.4802
 3418SOL     OW 6976   2.428   3.490   7.165 -0.0826  0.9960  0.1029
 3418SOL    HW1 6977   2.373   3.489   7.244 -0.2658 -3.8036  0.2422
 3418SOL    HW2 6978   2.516   3.506   7.197 -0.0474 -1.5624  1.6075
 3419SOL     OW 6979   1.623   3.406   6.277 -0.3222 -0.4714  0.1689
 3419SOL    HW1 6980   1.642   3.495   6.305  1.2944 -0.1522 -1.7080
 3419SOL    HW2 6981   1.681   3.351   6.330  1.5678 -0.0195 -1.3561
 3420SOL     OW 6982   0.963   1.910   6.818  0.4909  0.5730 -0.1502
 3420SOL    HW1 6983   1.035   1.965   6.789 -0.2315  2.2554  1.0748
 3420SOL    HW2 6984   0.890   1.932   6.760  0.8416 -0.9817 -1.2620
 3421SOL     OW 6985   3.589   2.349   7.656 -0.3140  0.1051  0.1583
 3421SOL    HW1 6986   3.600   2.443   7.644  0.1565 -0.1211 -1.3674
 3421SOL    HW2 6987   3.654   2.310   7.598 -0.5966 -1.1687  0.6757
 3422SOL     OW 6988   1.681   3.164   7.675  0.3917 -0.0323  0.2954
 3422SOL    HW1 6989   1.686   3.137   7.584  1.9030 -0.5954  0.5195
 3422SOL    HW2 6990   1.771   3.157   7.708 -0.1616 -0.0867  1.8966
 3423SOL     OW 6991   1.099   1.593   7.684  0.4819 -0.6477 -0.2186
 3423SOL    HW1 6992   1.159   1.667   7.689  1.2830 -1.0954 -2.2824
 3423SOL    HW2 6993   1.153   1.519   7.656 -0.7380 -1.4335 -0.6230
 3424SOL     OW 6994   0.040   3.482   6.507 -0.2003  0.0066  0.2027
 3424SOL    HW1 6995   0.032   3.414   6.440  1.6644  2.3323 -2.5765
 3424SOL    HW2 6996  -0.034   3.540   6.491 -0.5139 -0.1178  1.1136
 3425SOL     OW 6997   1.242   3.326   7.678 -0.1057 -0.5430  0.0528
 3425SOL    HW1 6998   1.242   3.420   7.695 -1.3594 -0.4656 -0.3118
 3425SOL    HW2 6999   1.331   3.308   7.646 -0.7250  1.1484 -3.1287
 3426SOL     OW 7000   2.887   2.216   7.155 -0.1769  0.5550 -0.0635
 3426SOL    HW1 7001   2.926   2.239   7.239  1.2740 -0.8863 -0.2869
 3426SOL    HW2 7002   2.847   2.130   7.170 -0.2090  0.4456 -0.7392
 3427SOL     OW 7003   1.955   2.098   6.233  0.1983 -0.5026  0.1551
 3427SOL    HW1 7004   2.025   2.057   6.180  0.5117 -0.6301  0.6630
 3427SOL    HW2 7005   1.874   2.072   6.190  0.4516 -0.6194 -0.2576
 3428SOL     OW 7006   3.443   1.127   6.715  0.0499 -0.1205  0.3129
 3428SOL    HW1 7007   3.354   1.090   6.713 -0.3516  0.6691 -3.2788
 3428SOL    HW2 7008   3.430   1.221   6.722  0.6065 -0.0031 -0.1611
 3429SOL     OW 7009   1.675   0.013   5.970  0.2459 -0.5741  0.0892
 3429SOL    HW1 7010   1.646   0.028   6.060  0.5218 -1.1641  0.2757
 3429SOL    HW2 7011   1.654  -0.079   5.953  1.7870 -0.9589  0.1521
 3430SOL     OW 7012   1.805   2.286   6.741  0.0171 -0.2681 -0.2988
 3430SOL    HW1 7013   1.857   2.209   6.764  1.6570  0.3789 -1.5788
 3430SOL    HW2 7014   1.812   2.292   6.646  1.4405  2.4109 -0.1232
 3431SOL     OW 7015   2.842   2.657   7.394 -0.1469  0.2820 -0.1057
 3431SOL    HW1 7016   2.829   2.736   7.341  0.5827  1.2012  1.0131
 3431SOL    HW2 7017   2.935   2.660   7.419 -0.1392 -0.8727  0.0560
 3432SOL     OW 7018   3.188   2.859   5.627  0.0945  0.1983  0.7769
 3432SOL    HW1 7019   3.186   2.777   5.677  0.5200  0.4174  1.1678
 3432SOL    HW2 7020   3.245   2.916   5.679 -0.2591  0.7646  0.5413
 3433SOL     OW 7021   1.031   2.303   7.371 -0.4023 -0.0847 -0.4233
 3433SOL    HW1 7022   0.992   2.217   7.390  1.6046 -1.1285 -0.7047
 3433SOL    HW2 7023   0.963   2.366   7.395 -1.7435 -1.7216  0.3213
 3434SOL     OW 7024   1.288   2.443   6.448 -0.1369 -0.0822  0.1796
 3434SOL    HW1 7025   1.340   2.495   6.509  1.2957 -1.1348 -0.1087
 3434SOL    HW2 7026   1.309   2.353   6.469 -0.1204 -0.4853 -1.4503
 3435SOL     OW 7027   1.757   1.608   6.015  0.1149 -0.0264 -0.7877
 3435SOL    HW1 7028   1.700   1.538   5.983  0.7804 -0.3686 -1.2761
 3435SOL    HW2 7029   1.815   1.565   6.078 -0.1955  0.3263 -0.2565
 3436SOL     OW 7030   1.044   2.479   6.223 -0.1420 -0.1338 -0.6298
 3436SOL    HW1 7031   1.117   2.455   6.281 -0.7776 -1.2080 -0.2394
 3436SOL    HW2 7032   1.031   2.573   6.238  0.5736 -0.1198 -0.0378
 3437SOL     OW 7033   1.067   4.127   6.289  0.2853 -0.4107  0.1016
 3437SOL    HW1 7034   1.009   4.051   6.298  1.7672 -1.4195  2.3007
 3437SOL    HW2 7035   1.016   4.192   6.242 -2.4311 -1.4049  1.4702
 3438SOL     OW 7036   4.055   1.674   6.544  0.0670 -0.2629  0.3008
 3438SOL    HW1 7037   4.117   1.665   6.472 -0.1202 -0.6968  0.1925
 3438SOL    HW2 7038   4.092   1.744   6.598 -0.0152  0.3697 -0.4423
 3439SOL     OW 7039   1.517   2.202   6.975 -0.0069  0.4440 -0.0912
 3439SOL    HW1 7040   1.468   2.265   6.922 -0.6302 -0.4143 -0.5722
 3439SOL    HW2 7041   1.598   2.247   6.997 -0.0573  1.0965 -1.1656
 3440SOL     OW 7042   2.935   1.236   6.482 -0.2522  0.5345 -0.5198
 3440SOL    HW1 7043   2.842   1.251   6.465  0.1008  3.5088 -0.2148
 3440SOL    HW2 7044   2.978   1.245   6.397 -0.2796 -2.2954 -0.9486
 3441SOL     OW 7045   0.899   2.790   6.359 -0.6784  0.7190 -0.6952
 3441SOL    HW1 7046   0.875   2.768   6.269 -0.7932 -1.0295 -0.2784
 3441SOL    HW2 7047   0.982   2.837   6.351  0.1917 -0.8744 -1.6586
 3442SOL     OW 7048   0.209   2.825   7.697 -0.0953  0.3034 -0.4180
 3442SOL    HW1 7049   0.263   2.839   7.619 -0.6550  1.5239 -0.6056
 3442SOL    HW2 7050   0.162   2.908   7.709 -0.9202 -0.2797  0.5204
 3443SOL     OW 7051   0.367   1.866   7.431  0.0086 -0.1370 -0.1178
 3443SOL    HW1 7052   0.395   1.827   7.514 -0.2154  0.0325  0.0401
 3443SOL    HW2 7053   0.356   1.959   7.451  2.9116  0.5139 -1.0729
 3444SOL     OW 7054   1.637   0.375   7.058 -0.3675 -0.1985  0.0757
 3444SOL    HW1 7055   1.730   0.400   7.063 -0.3461 -0.3457  0.4080
 3444SOL    HW2 7056   1.638   0.282   7.034 -0.4178 -0.3476  0.6397
 3445SOL     OW 7057   0.677   3.108   7.688  0.4725 -0.1259 -0.0088
 3445SOL    HW1 7058   0.605   3.113   7.625 -0.7286 -1.8787  1.1536
 3445SOL    HW2 7059   0.683   3.196   7.725 -1.5014 -0.0967  0.3274
 3446SOL     OW 7060   1.766   2.647   6.264 -0.3043  0.2808 -0.5183
 3446SOL    HW1 7061   1.736   2.556   6.257 -1.0303  0.4028  0.7010
 3446SOL    HW2 7062   1.834   2.644   6.332 -0.1576  0.6095 -0.6488
 3447SOL     OW 7063   3.353   2.313   5.424 -0.3596 -0.1125 -0.0874
 3447SOL    HW1 7064   3.441   2.304   5.462  0.3459  3.1727 -0.5700
 3447SOL    HW2 7065   3.299   2.251   5.473  1.5180  0.2663  2.7347
 3448SOL     OW 7066   2.614   2.963   4.824 -0.4767 -0.3542 -0.1016
 3448SOL    HW1 7067   2.535   2.932   4.780 -0.4996 -1.1954  0.4994
 3448SOL    HW2 7068   2.600   3.058   4.835 -0.5133 -0.1454 -1.7564
 3449SOL     OW 7069   3.007   2.247   7.380 -0.1912 -0.0676  0.0902
 3449SOL    HW1 7070   3.057   2.326   7.400 -0.9771  1.2193 -2.5494
 3449SOL    HW2 7071   3.066   2.175   7.400  1.1354  1.2275  1.0360
 3450SOL     OW 7072   1.930   3.439   6.186 -0.3205  0.5688 -0.4332
 3450SOL    HW1 7073   1.844   3.400   6.202 -0.9883  1.5301 -1.5586
 3450SOL    HW2 7074   1.939   3.439   6.091  1.2472 -0.1614 -0.3117
 3451SOL     OW 7075   2.169   2.999   6.803  0.5873 -0.1684 -0.3760
 3451SOL    HW1 7076   2.202   3.013   6.714  2.1772 -0.0123  0.2046
 3451SOL    HW2 7077   2.175   2.905   6.816 -1.3571 -0.4204 -1.0363
 3452SOL     OW 7078   2.074   2.659   5.847 -0.2057  0.1528  0.2657
 3452SOL    HW1 7079   2.148   2.687   5.900  0.1659 -0.2477 -0.0360
 3452SOL    HW2 7080   2.091   2.567   5.828  0.6393  0.6967 -2.0704
 3453SOL     OW 7081   1.722   3.402   7.346  0.3773  0.3210  0.2735
 3453SOL    HW1 7082   1.791   3.448   7.394  0.8859 -0.6676  0.5315
 3453SOL    HW2 7083   1.673   3.471   7.302  2.9810  1.0122 -1.8810
 3454SOL     OW 7084   0.580   2.940   6.735  0.0390 -0.1842 -0.3788
 3454SOL    HW1 7085   0.497   2.987   6.746 -0.2359 -0.3945 -1.4104
 3454SOL    HW2 7086   0.577   2.870   6.801 -1.0151 -0.7346 -0.9775
 3455SOL     OW 7087   1.425   2.349   7.695 -0.5646 -0.0459 -0.2483
 3455SOL    HW1 7088   1.489   2.419   7.711 -1.2806  0.8852 -1.2737
 3455SOL    HW2 7089   1.340   2.395   7.692 -1.1459 -1.0830 -0.1464
 3456SOL     OW 7090   3.780   2.530   4.427  0.4168  0.4003  0.2010
 3456SOL    HW1 7091   3.702   2.553   4.477 -0.1487  1.1337 -0.9653
 3456SOL    HW2 7092   3.807   2.445   4.462 -0.6911  0.3112  0.8739
 3457SOL     OW 7093   0.393   3.634   7.149  0.4085 -0.5413 -0.2602
 3457SOL    HW1 7094   0.358   3.549   7.122 -0.4927 -0.5106  0.7297
 3457SOL    HW2 7095   0.394   3.630   7.245  1.6841  0.0526 -0.2263
 3458SOL     OW 7096   0.873   3.159   7.514  1.1756  0.0432  0.1806
 3458SOL    HW1 7097   0.885   3.253   7.530  0.5616  0.4471 -1.5342
 3458SOL    HW2 7098   0.805   3.133   7.576  1.0034  0.8551  0.3445
 3459SOL     OW 7099   3.924   3.307   5.568 -0.5814 -0.6938  0.6353
 3459SOL    HW1 7100   3.832   3.310   5.541 -0.4971  0.5767  0.4550
 3459SOL    HW2 7101   3.922   3.330   5.661 -0.5667 -2.0461  0.9892
 3460SOL     OW 7102   0.865   0.028   6.209  0.2324  0.1921  0.4192
 3460SOL    HW1 7103   0.831  -0.001   6.294  1.6432 -0.1346  0.8935
 3460SOL    HW2 7104   0.889   0.120   6.224 -2.3385  1.1160 -0.5157
 3461SOL     OW 7105   3.140   1.246   6.654 -0.1362 -0.2396 -0.0794
 3461SOL    HW1 7106   3.102   1.222   6.738 -1.0748  0.9154 -0.1401
 3461SOL    HW2 7107   3.065   1.250   6.594  0.1224  1.4700 -0.3564
 3462SOL     OW 7108   1.706   2.355   4.477  0.3035  0.3453  0.5374
 3462SOL    HW1 7109   1.682   2.265   4.500 -0.4996  0.7457  1.3565
 3462SOL    HW2 7110   1.734   2.394   4.560  1.7182  0.5331 -0.0177
 3463SOL     OW 7111   0.423   1.408   6.797  0.0664  0.2025 -0.4037
 3463SOL    HW1 7112   0.354   1.434   6.735  1.4070  1.2515 -1.5229
 3463SOL    HW2 7113   0.416   1.472   6.868  1.1610  1.6148 -1.5113
 3464SOL     OW 7114   2.660   1.484   5.517 -0.6219  0.0852  0.5183
 3464SOL    HW1 7115   2.604   1.435   5.457  1.5799 -0.9171 -0.8270
 3464SOL    HW2 7116   2.698   1.418   5.575  0.8811  0.4166 -0.0512
 3465SOL     OW 7117   0.925   0.974   5.035  0.2750 -0.4310  0.0238
 3465SOL    HW1 7118   0.841   0.978   5.082  0.4559  1.2322  0.2714
 3465SOL    HW2 7119   0.943   0.881   5.026 -1.2937 -0.8172  0.5276
 3466SOL     OW 7120   0.067   3.004   6.884  0.4660  0.4572 -0.0578
 3466SOL    HW1 7121   0.010   3.032   6.813 -1.0108 -0.2028  0.8112
 3466SOL    HW2 7122   0.029   3.045   6.962  1.3548  0.2179  0.5157
 3467SOL     OW 7123   2.239   1.845   5.099 -0.3557 -0.1892 -0.0279
 3467SOL    HW1 7124   2.253   1.771   5.039  1.0372  1.1719 -1.4961
 3467SOL    HW2 7125   2.239   1.922   5.042  1.3186  1.2198  1.7349
 3468SOL     OW 7126   0.169   1.905   7.223  0.0070 -0.3482  0.3208
 3468SOL    HW1 7127   0.099   1.848   7.256  0.7399 -0.8235  1.0775
 3468SOL    HW2 7128   0.243   1.888   7.280  1.5812 -1.7246 -1.9545
 3469SOL     OW 7129   1.176   0.779   6.269 -0.3985  0.1997 -0.1212
 3469SOL    HW1 7130   1.201   0.802   6.179 -0.9209 -0.3869 -0.4200
 3469SOL    HW2 7131   1.093   0.733   6.260 -0.3397 -0.0676  0.6454
 3470SOL     OW 7132   2.727   3.027   7.497  0.5144  0.5852 -0.2737
 3470SOL    HW1 7133   2.814   3.058   7.473  0.2658  0.9833 -0.6749
 3470SOL    HW2 7134   2.678   3.027   7.414  0.8128 -1.9363 -0.5174
 3471SOL     OW 7135   3.642   3.264   6.038 -0.6959 -0.2281 -0.2603
 3471SOL    HW1 7136   3.564   3.317   6.025 -1.5267 -1.0793  1.0440
 3471SOL    HW2 7137   3.711   3.327   6.060 -1.2935  0.4344 -0.2583
 3472SOL     OW 7138   2.723   1.442   2.570 -0.1003 -0.3975 -0.6089
 3472SOL    HW1 7139   2.687   1.477   2.489 -0.4373 -1.0105 -0.7340
 3472SOL    HW2 7140   2.690   1.499   2.638 -0.0423 -0.0418 -0.8763
 3473SOL     OW 7141   1.309   2.588   6.772 -0.3375 -0.2299  0.0851
 3473SOL    HW1 7142   1.243   2.519   6.780 -0.4342  0.0600  2.2909
 3473SOL    HW2 7143   1.388   2.542   6.743 -0.2004 -1.4397  2.2187
 3474SOL     OW 7144   4.229   0.278   4.887  0.0529 -0.2159 -0.2828
 3474SOL    HW1 7145   4.320   0.303   4.900 -0.1059  0.8848 -1.1543
 3474SOL    HW2 7146   4.233   0.185   4.865  1.2735  0.3887 -3.0561
 3475SOL     OW 7147   1.176   3.083   5.416 -0.2467  0.2033  0.0527
 3475SOL    HW1 7148   1.241   3.015   5.402 -0.4474 -0.2250  1.1210
 3475SOL    HW2 7149   1.223   3.153   5.461 -0.6794 -0.4602  1.6086
 3476SOL     OW 7150   0.352   2.855   7.463 -0.3259 -0.5644  0.0920
 3476SOL    HW1 7151   0.439   2.854   7.425 -0.8057  0.6840 -1.1486
 3476SOL    HW2 7152   0.293   2.864   7.388 -1.3994  0.7057  1.0407
 3477SOL     OW 7153   2.185   1.813   7.049  0.1208  0.0794  0.4717
 3477SOL    HW1 7154   2.127   1.882   7.082  1.6633  1.5234  0.2550
 3477SOL    HW2 7155   2.125   1.742   7.024 -1.6198  1.7234 -0.2949
 3478SOL     OW 7156   1.098   3.098   7.692  0.5161  0.1761  0.0406
 3478SOL    HW1 7157   1.042   3.081   7.616  0.8752 -0.5010 -0.0808
 3478SOL    HW2 7158   1.145   3.179   7.669  0.1537  0.3240 -0.1824
 3479SOL     OW 7159   1.777   2.954   6.229  0.0304 -0.9510  0.2383
 3479SOL    HW1 7160   1.764   2.859   6.240  1.4721 -1.3321 -1.0158
 3479SOL    HW2 7161   1.710   2.980   6.166 -1.0454 -0.9079  1.3647
 3480SOL     OW 7162   1.695   3.142   7.389 -0.6704  0.0319  0.4793
 3480SOL    HW1 7163   1.697   3.237   7.374  0.4502 -0.1360 -0.6468
 3480SOL    HW2 7164   1.602   3.119   7.385 -0.9137  1.0036  0.1770
 3481SOL     OW 7165   1.821   2.739   7.698 -0.7988 -0.4031  0.0521
 3481SOL    HW1 7166   1.855   2.822   7.666 -0.8944 -0.4912 -0.2826
 3481SOL    HW2 7167   1.897   2.681   7.699 -0.8745 -0.5142 -0.4058
 3482SOL     OW 7168   3.295   4.063   7.441  0.5971  0.2076 -0.0118
 3482SOL    HW1 7169   3.210   4.053   7.398 -0.0446 -0.1868  1.2942
 3482SOL    HW2 7170   3.341   3.982   7.419  0.5834  0.3453 -0.5800
 3483SOL     OW 7171   1.575   2.422   6.689  0.3659  0.0300 -0.2929
 3483SOL    HW1 7172   1.587   2.403   6.596  1.0536  0.6679 -0.3441
 3483SOL    HW2 7173   1.649   2.380   6.732  0.2836  0.0986 -0.0811
 3484SOL     OW 7174   0.149   3.459   5.177 -0.0435 -0.5901  0.0857
 3484SOL    HW1 7175   0.109   3.545   5.188 -0.0440 -0.7971  1.9353
 3484SOL    HW2 7176   0.087   3.410   5.123  0.5150  0.9026 -2.0240
 3485SOL     OW 7177   2.654   2.685   6.090  0.3289  0.0605  0.0666
 3485SOL    HW1 7178   2.666   2.749   6.160  2.2061 -1.4247  1.2124
 3485SOL    HW2 7179   2.625   2.606   6.134 -1.8014 -0.0048 -1.3062
 3486SOL     OW 7180   0.078   2.701   5.753 -0.5549 -0.3495  0.3286
 3486SOL    HW1 7181   0.062   2.767   5.820 -0.5568  0.6047 -0.5716
 3486SOL    HW2 7182   0.161   2.661   5.778  0.7796  1.7513 -0.3873
 3487SOL     OW 7183   1.720   2.891   4.640  0.0969  0.1223  0.3203
 3487SOL    HW1 7184   1.756   2.948   4.707  0.2240 -0.3003  0.6175
 3487SOL    HW2 7185   1.786   2.821   4.630  0.4134  0.5522 -0.7417
 3488SOL     OW 7186   0.566   2.111   7.722 -0.0720 -0.4576  0.1797
 3488SOL    HW1 7187   0.554   2.201   7.753  1.2376 -0.0678 -0.3812
 3488SOL    HW2 7188   0.648   2.113   7.673 -0.4331 -1.7876 -0.5292
 3489SOL     OW 7189   4.053   2.754   4.769 -0.0350 -0.2349  0.1829
 3489SOL    HW1 7190   4.014   2.757   4.856  0.8507 -0.3192  0.5909
 3489SOL    HW2 7191   4.032   2.667   4.736 -0.8019 -0.0265  0.0989
 3490SOL     OW 7192   1.550   4.225   6.253  0.3136  0.3187  0.1856
 3490SOL    HW1 7193   1.518   4.216   6.343  1.6894 -2.0946  0.5214
 3490SOL    HW2 7194   1.473   4.207   6.198 -0.3933  1.1894  0.8641
 3491SOL     OW 7195   2.143   1.938   6.086 -0.6064 -0.2369  0.1134
 3491SOL    HW1 7196   2.127   2.006   6.020 -1.1300 -0.0525  0.4246
 3491SOL    HW2 7197   2.075   1.872   6.070 -0.3747 -0.4756  0.0989
 3492SOL     OW 7198   0.495   3.938   5.336 -0.0404 -0.1859 -0.3284
 3492SOL    HW1 7199   0.458   4.021   5.366 -0.4352 -0.2650 -0.5982
 3492SOL    HW2 7200   0.433   3.872   5.365 -0.9249 -0.1871 -2.1269
 3493SOL     OW 7201   1.690   2.954   5.762 -0.6737 -0.4461  0.3146
 3493SOL    HW1 7202   1.785   2.946   5.754 -0.7366 -1.1806  0.2950
 3493SOL    HW2 7203   1.666   3.020   5.696 -0.0375  0.6945  1.1962
 3494SOL     OW 7204   2.038   3.824   7.220  0.0485  0.0598  0.1835
 3494SOL    HW1 7205   2.073   3.814   7.132  1.9053 -2.5478  1.0835
 3494SOL    HW2 7206   2.108   3.866   7.270 -0.4026  0.1596  0.7510
 3495SOL     OW 7207   1.304   3.681   7.418  0.4343 -0.1547 -0.2162
 3495SOL    HW1 7208   1.331   3.628   7.493 -0.1878  0.2093  0.2764
 3495SOL    HW2 7209   1.385   3.723   7.389  0.2273  2.3285  2.3559
 3496SOL     OW 7210   1.122   1.813   6.553 -0.1497 -0.8576 -0.2406
 3496SOL    HW1 7211   1.149   1.905   6.555  1.2683 -1.2484 -0.3159
 3496SOL    HW2 7212   1.082   1.798   6.639 -0.7602 -0.0785 -0.3790
 3497SOL     OW 7213   2.690   3.515   7.262  0.5253  0.1443 -0.2783
 3497SOL    HW1 7214   2.707   3.510   7.356  1.3805 -0.6996 -0.4618
 3497SOL    HW2 7215   2.777   3.514   7.222  0.1491 -0.5882 -1.1150
 3498SOL     OW 7216   1.126   2.742   6.620 -0.1514 -0.4435 -0.0430
 3498SOL    HW1 7217   1.086   2.818   6.662 -0.5167 -1.8588  2.4108
 3498SOL    HW2 7218   1.176   2.700   6.690  4.0472  0.0419 -2.4532
 3499SOL     OW 7219   2.046   1.345   5.359  0.7042 -0.0362  0.6092
 3499SOL    HW1 7220   2.021   1.372   5.447 -0.4198 -1.5603  0.7879
 3499SOL    HW2 7221   1.982   1.388   5.302  2.1740  1.9735  0.3529
 3500SOL     OW 7222   3.938   3.555   5.433 -0.4748 -0.1602 -0.0259
 3500SOL    HW1 7223   3.931   3.481   5.493 -0.9096  0.0267  0.1552
 3500SOL    HW2 7224   3.863   3.610   5.453  0.5207  0.9750  0.7138
 3501SOL     OW 7225   1.736   1.575   6.887 -0.7147  0.8224  0.8134
 3501SOL    HW1 7226   1.658   1.632   6.883 -1.2448  0.0703  0.0305
 3501SOL    HW2 7227   1.717   1.505   6.824 -0.8430 -1.1960  2.9539
 3502SOL     OW 7228   1.239   2.022   7.391  0.2721  0.3326 -0.6263
 3502SOL    HW1 7229   1.251   1.929   7.372 -0.9714 -0.4242  1.8822
 3502SOL    HW2 7230   1.319   2.047   7.438  0.8521  0.7150 -1.7819
 3503SOL     OW 7231   0.925   2.012   7.115 -0.3541  0.2048 -0.0951
 3503SOL    HW1 7232   0.964   2.040   7.032 -0.1464 -0.2807 -0.1627
 3503SOL    HW2 7233   0.831   2.008   7.097 -0.2935 -0.0882 -0.3684
 3504SOL     OW 7234   0.841   2.473   7.464 -0.0738 -0.6332 -0.4855
 3504SOL    HW1 7235   0.853   2.518   7.548  0.4324  0.6646 -1.2324
 3504SOL    HW2 7236   0.747   2.473   7.450 -0.1165 -0.3079 -0.2074
 3505SOL     OW 7237   4.167   3.280   7.637  0.1865  0.1979  0.3297
 3505SOL    HW1 7238   4.261   3.292   7.654 -0.0522  1.4561  0.8867
 3505SOL    HW2 7239   4.127   3.362   7.666 -1.0234 -0.0862 -0.4626
 3506SOL     OW 7240   0.697   2.363   7.709 -0.0386 -1.0632  0.5911
 3506SOL    HW1 7241   0.679   2.298   7.641  1.3660 -0.3812 -0.5063
 3506SOL    HW2 7242   0.793   2.364   7.716  0.1403  2.0227 -0.6733
 3507SOL     OW 7243   1.426   3.822   7.702 -0.3440  0.4694 -0.1847
 3507SOL    HW1 7244   1.501   3.881   7.697 -0.1453  0.1150 -2.2192
 3507SOL    HW2 7245   1.351   3.876   7.674  0.1028 -0.5557 -3.7559
 3508SOL     OW 7246   0.758   2.000   6.676 -0.4495  0.1750 -0.3514
 3508SOL    HW1 7247   0.679   1.979   6.725 -1.0584 -0.2062 -1.4530
 3508SOL    HW2 7248   0.739   1.972   6.587  1.1545 -0.5142 -0.5223
 3509SOL     OW 7249   0.409   2.399   7.717 -0.6109 -0.3513  0.7917
 3509SOL    HW1 7250   0.458   2.397   7.799 -0.0825  3.0565  0.7321
 3509SOL    HW2 7251   0.475   2.416   7.650 -1.4714  1.7438  0.3826
 3510SOL     OW 7252   0.963   3.384   7.663 -0.1420  0.5955  0.3171
 3510SOL    HW1 7253   1.041   3.344   7.702  0.8736  1.5970 -0.6171
 3510SOL    HW2 7254   0.968   3.477   7.686  0.2652  1.1445 -1.7506
 3511SOL     OW 7255   2.223   1.184   6.701 -0.2213 -0.0226  0.1694
 3511SOL    HW1 7256   2.274   1.111   6.735  0.0520  0.4192  0.7278
 3511SOL    HW2 7257   2.144   1.144   6.665  0.8345 -0.7883 -1.3951
 3512SOL     OW 7258   0.919   3.968   7.707  0.3084  0.3560 -0.3743
 3512SOL    HW1 7259   0.854   4.030   7.741  1.3320  0.2501  2.0196
 3512SOL    HW2 7260   0.877   3.928   7.631 -2.6865 -0.0675  1.3214
 3513SOL     OW 7261   1.842   1.982   7.717 -0.4004 -0.2627 -0.1279
 3513SOL    HW1 7262   1.937   1.985   7.731 -0.2990 -1.4014 -0.5106
 3513SOL    HW2 7263   1.817   2.075   7.711  0.4979  0.0913  1.1009
 3514SOL     OW 7264   0.696   2.283   5.030 -0.2532 -0.1721 -0.2375
 3514SOL    HW1 7265   0.775   2.273   4.976 -0.1749  0.0243 -0.1601
 3514SOL    HW2 7266   0.628   2.309   4.968  0.1184  1.2972 -0.0671
 3515SOL     OW 7267   1.772   4.161   7.131 -0.1626 -0.0687 -0.1018
 3515SOL    HW1 7268   1.781   4.068   7.148  2.1233  0.1916  0.4402
 3515SOL    HW2 7269   1.862   4.195   7.132 -0.8394  1.9633 -1.3286
 3516SOL     OW 7270   0.225   2.159   7.694  0.0246 -0.1932 -0.0546
 3516SOL    HW1 7271   0.306   2.190   7.735 -0.3068  1.1259 -0.3501
 3516SOL    HW2 7272   0.247   2.150   7.601 -0.5476  1.7160 -0.4249
 3517SOL     OW 7273   1.788   3.916   7.215  0.1891  0.2517 -0.3756
 3517SOL    HW1 7274   1.856   3.850   7.228 -0.6367 -1.0653 -2.3443
 3517SOL    HW2 7275   1.709   3.876   7.252 -0.4274 -0.1507 -2.0352
 3518SOL     OW 7276   0.219   3.591   7.670  0.0401 -0.0722 -0.1704
 3518SOL    HW1 7277   0.236   3.684   7.652  0.8771 -0.0807  0.5315
 3518SOL    HW2 7278   0.124   3.584   7.670 -0.0211  0.6672 -0.8292
 3519SOL     OW 7279   1.239   2.535   7.718 -0.3835 -0.1266  0.0921
 3519SOL    HW1 7280   1.258   2.589   7.641 -0.9065 -0.3805 -0.2265
 3519SOL    HW2 7281   1.151   2.562   7.744 -1.3674 -1.9878 -1.1080
 3520SOL     OW 7282   0.186   2.553   7.671  0.8810 -0.1886  0.5926
 3520SOL    HW1 7283   0.188   2.648   7.679  2.0104  0.0402 -1.5546
 3520SOL    HW2 7284   0.263   2.522   7.717  0.3107 -0.1275  1.6162
 3521SOL     OW 7285   0.042   3.032   7.676  0.3132 -0.2950 -0.3204
 3521SOL    HW1 7286   0.097   3.089   7.730 -0.1093 -0.5464  0.3906
 3521SOL    HW2 7287  -0.048   3.055   7.700  0.1288 -2.3108  1.1422
 3522SOL     OW 7288   1.925   2.528   7.237 -0.2836 -0.1466 -0.0917
 3522SOL    HW1 7289   1.989   2.592   7.269  0.4548 -0.2266 -1.3225
 3522SOL    HW2 7290   1.867   2.513   7.312 -1.2380  2.8426 -0.0947
 3523SOL     OW 7291   1.615   3.621   7.689  0.3681 -0.3494  0.2743
 3523SOL    HW1 7292   1.541   3.680   7.699  1.4206  1.6256 -2.4679
 3523SOL    HW2 7293   1.576   3.537   7.664 -1.0433 -0.4299  2.5024
 3524SOL     OW 7294   4.185   3.231   6.797 -0.2811 -0.1998 -0.2294
 3524SOL    HW1 7295   4.228   3.254   6.714 -1.4100 -0.1603 -0.8262
 3524SOL    HW2 7296   4.143   3.312   6.825 -1.4731 -0.6619 -0.6073
 3525SOL     OW 7297   1.507   3.376   7.692 -0.6812  0.5545 -0.1831
 3525SOL    HW1 7298   1.565   3.301   7.682 -0.1364  0.8662  0.5275
 3525SOL    HW2 7299   1.466   3.364   7.777 -2.7934 -0.4089 -1.2741
 3526SOL     OW 7300   0.112   3.695   5.857 -0.2245 -0.1985 -0.2855
 3526SOL    HW1 7301   0.158   3.764   5.905  0.3995 -0.1811 -0.9007
 3526SOL    HW2 7302   0.019   3.712   5.875 -0.0340  0.2428  0.3179
 3527SOL     OW 7303   1.941   4.317   7.636  0.0414  0.1217 -0.5534
 3527SOL    HW1 7304   1.950   4.412   7.643  0.6167  0.0515 -0.3215
 3527SOL    HW2 7305   1.878   4.304   7.565 -1.1317  0.7092  0.3422
 3528SOL     OW 7306   4.079   3.539   7.693  0.0179  0.0686 -0.1746
 3528SOL    HW1 7307   4.149   3.601   7.670  0.2101 -0.9066 -2.4728
 3528SOL    HW2 7308   4.001   3.594   7.703  0.5731  0.8882 -0.2329
 3529SOL     OW 7309   0.339   3.118   7.704  0.0099  0.1933 -0.1168
 3529SOL    HW1 7310   0.379   3.186   7.758  1.4827 -0.1857 -0.6953
 3529SOL    HW2 7311   0.391   3.039   7.721  0.1929 -0.0600 -1.6751
 3530SOL     OW 7312   0.130   3.332   7.671 -0.5005  0.0540  0.0573
 3530SOL    HW1 7313   0.208   3.280   7.654 -0.2933 -0.1448  1.4563
 3530SOL    HW2 7314   0.156   3.423   7.655 -0.0159 -0.0229  0.4047
 3531SOL     OW 7315   2.968   3.487   6.583 -0.4072  0.0624 -0.2549
 3531SOL    HW1 7316   2.960   3.399   6.620 -0.8853  0.3240  0.2863
 3531SOL    HW2 7317   2.901   3.490   6.514 -2.5065  0.9581  1.6927
 3532SOL     OW 7318   3.488   2.717   7.251 -0.1436 -0.2872 -0.5023
 3532SOL    HW1 7319   3.475   2.626   7.225 -1.4943 -0.6559  1.2488
 3532SOL    HW2 7320   3.570   2.717   7.301 -0.1910 -0.5716 -0.4239
 3533SOL     OW 7321   0.599   3.652   7.711  0.1893 -0.8772  0.0902
 3533SOL    HW1 7322   0.583   3.743   7.736  0.5666 -0.5908 -0.6678
 3533SOL    HW2 7323   0.587   3.651   7.616 -0.8032 -1.8458  0.2165
 3534SOL     OW 7324   2.528   2.666   5.857 -0.1541 -0.3044  0.3657
 3534SOL    HW1 7325   2.580   2.680   5.936 -0.8385 -0.3424  0.8360
 3534SOL    HW2 7326   2.587   2.686   5.785  0.6422 -0.7898  0.8760
 3535SOL     OW 7327   1.167   3.855   7.650 -0.2531  0.4072  0.0167
 3535SOL    HW1 7328   1.139   3.865   7.559 -0.7426 -0.4938  0.0582
 3535SOL    HW2 7329   1.099   3.898   7.702 -0.5013  0.0340  0.0051
 3536SOL     OW 7330   1.705   1.503   5.541  0.1467  0.0714 -0.0750
 3536SOL    HW1 7331   1.624   1.499   5.593  0.2137  0.7404  0.0955
 3536SOL    HW2 7332   1.770   1.458   5.594  0.5056  1.7524  1.0064
 3537SOL     OW 7333   0.906   2.893   7.713  0.5914 -0.1478  0.1949
 3537SOL    HW1 7334   0.982   2.946   7.734  0.7865 -0.7535  1.0636
 3537SOL    HW2 7335   0.831   2.951   7.729  0.8692  0.9367 -2.0818
 3538SOL     OW 7336   1.260   3.597   7.727  0.2327  0.4163  0.6787
 3538SOL    HW1 7337   1.175   3.640   7.731  0.5207  0.9168  3.2051
 3538SOL    HW2 7338   1.323   3.669   7.725  0.6602  0.0545 -1.4016
 3539SOL     OW 7339   1.631   1.393   6.714  0.0369  0.0559  0.1110
 3539SOL    HW1 7340   1.549   1.410   6.668 -0.4765 -0.0250  0.9664
 3539SOL    HW2 7341   1.668   1.317   6.669  0.0526  0.5833 -0.7885
 3540SOL     OW 7342   1.179   4.164   6.813 -0.8812 -0.4625 -0.4278
 3540SOL    HW1 7343   1.117   4.209   6.871 -0.0892  0.9849 -0.6537
 3540SOL    HW2 7344   1.150   4.187   6.725  1.4789  2.5725 -0.5732
 3541SOL     OW 7345   3.569   3.431   6.330  0.2967  0.6351 -0.5926
 3541SOL    HW1 7346   3.530   3.357   6.284  0.5777  1.1188 -1.6388
 3541SOL    HW2 7347   3.495   3.486   6.354  0.1922  0.6313 -0.9110
 3542SOL     OW 7348   3.607   3.060   3.324  0.5222  0.8113 -0.4210
 3542SOL    HW1 7349   3.529   3.018   3.286  2.5630 -0.1845 -3.9689
 3542SOL    HW2 7350   3.678   3.037   3.264  3.4546  2.3537  2.1835
 3543SOL     OW 7351   0.760   0.117   0.706 -0.0610 -0.3944  0.9071
 3543SOL    HW1 7352   0.753   0.183   0.638 -0.0857 -0.9556  0.3571
 3543SOL    HW2 7353   0.681   0.064   0.697 -0.5351  0.0989  1.9917
 3544SOL     OW 7354   2.231   1.036   1.199 -0.2788  0.5346 -0.1404
 3544SOL    HW1 7355   2.155   1.081   1.236 -0.1560  0.5575  0.0796
 3544SOL    HW2 7356   2.221   1.049   1.104 -1.3288 -0.6812 -0.2336
 3545SOL     OW 7357   4.261   4.286   1.393 -0.3775  0.4145  0.4055
 3545SOL    HW1 7358   4.204   4.216   1.426 -0.5459 -1.1458 -2.8228
 3545SOL    HW2 7359   4.202   4.361   1.382 -0.7152  0.3556  1.5922
 3546SOL     OW 7360   4.051   4.049   2.493 -0.5573 -0.2969 -0.2865
 3546SOL    HW1 7361   4.025   3.960   2.469 -0.4163  0.1174 -2.0831
 3546SOL    HW2 7362   3.986   4.075   2.558 -1.2530 -1.3266 -0.5327
 3547SOL     OW 7363   4.180   2.028   1.812  0.8024  0.2983 -0.0593
 3547SOL    HW1 7364   4.155   2.077   1.890 -2.1403  0.1267 -0.7843
 3547SOL    HW2 7365   4.222   1.949   1.846 -1.2897 -0.2456  1.4668
 3548SOL     OW 7366   0.964   0.722   1.373  0.1423  0.2810 -0.2696
 3548SOL    HW1 7367   0.976   0.714   1.279 -0.9001 -3.1252 -0.2381
 3548SOL    HW2 7368   1.037   0.674   1.411 -0.9587 -0.8590  0.5121
 3549SOL     OW 7369   4.240   0.008   0.846 -0.0347  0.6971 -0.4672
 3549SOL    HW1 7370   4.304   0.061   0.798  0.5437 -0.1549 -0.6613
 3549SOL    HW2 7371   4.226  -0.068   0.791  0.5341 -0.2385  0.6376
 3550SOL     OW 7372   0.707   3.766   0.671  0.6488 -0.4233 -0.0412
 3550SOL    HW1 7373   0.695   3.813   0.753  0.3912 -0.9999  0.2564
 3550SOL    HW2 7374   0.790   3.719   0.682  1.8835  1.4122 -1.0512
 3551SOL     OW 7375   4.128   3.900   1.254  0.1676  0.2132  0.9231
 3551SOL    HW1 7376   4.161   3.959   1.186  1.3332 -1.0538  0.3282
 3551SOL    HW2 7377   4.173   3.817   1.237 -1.8760 -1.0587  1.3174
 3552SOL     OW 7378   0.946   0.612   2.114  0.0968 -0.2145  0.1559
 3552SOL    HW1 7379   0.970   0.607   2.207  0.6386  0.3460  0.0585
 3552SOL    HW2 7380   0.963   0.525   2.079 -1.4916 -0.8638  0.8863
 3553SOL     OW 7381   0.897   3.633   1.514 -0.4467 -0.3178 -0.1366
 3553SOL    HW1 7382   0.812   3.606   1.550  0.1974  0.1830  1.9071
 3553SOL    HW2 7383   0.893   3.728   1.512 -0.2538 -0.3209 -0.9110
 3554SOL     OW 7384   1.433   3.788   0.691 -0.4192  0.5451  0.1938
 3554SOL    HW1 7385   1.523   3.762   0.673 -0.8326 -1.7038  0.9773
 3554SOL    HW2 7386   1.434   3.884   0.687  1.2445  0.5225 -3.2109
 3555SOL     OW 7387   0.211   4.168   1.700  0.3868 -0.3267 -0.2868
 3555SOL    HW1 7388   0.268   4.093   1.686  1.1599  0.1003  0.4980
 3555SOL    HW2 7389   0.168   4.151   1.784 -0.4423 -0.5015 -0.7267
 3556SOL     OW 7390   0.711   3.802   2.352  0.3782 -0.1069 -0.2335
 3556SOL    HW1 7391   0.746   3.768   2.434 -2.5316  1.3216  1.7865
 3556SOL    HW2 7392   0.695   3.725   2.299 -0.7006 -1.4687  1.9040
 3557SOL     OW 7393   0.926   3.594   0.697 -0.2425  0.3291 -0.2875
 3557SOL    HW1 7394   0.976   3.587   0.616  0.5641  0.6886  0.1741
 3557SOL    HW2 7395   0.876   3.513   0.701  0.6557 -0.2471 -0.5193
 3558SOL     OW 7396   0.630   4.064   1.862 -0.4906  0.2624  0.0467
 3558SOL    HW1 7397   0.633   4.154   1.829 -0.1320  0.4053  0.4556
 3558SOL    HW2 7398   0.588   4.071   1.948  0.0541  0.1261  0.3298
 3559SOL     OW 7399   3.835   3.201   1.875 -0.3763 -0.4070 -0.3882
 3559SOL    HW1 7400   3.779   3.278   1.866  1.4714  1.2461  1.4654
 3559SOL    HW2 7401   3.891   3.202   1.798  0.1717  0.5878  0.0123
 3560SOL     OW 7402   2.505   4.151   1.278 -0.5437  0.8632 -0.1557
 3560SOL    HW1 7403   2.551   4.105   1.208 -1.0379  1.2670 -0.7481
 3560SOL    HW2 7404   2.556   4.131   1.357 -1.3213 -1.5561 -0.1904
 3561SOL     OW 7405   1.146   3.613   0.942  0.6854 -0.5585 -0.3640
 3561SOL    HW1 7406   1.177   3.523   0.946  1.0964 -0.4052 -0.0757
 3561SOL    HW2 7407   1.155   3.638   0.850  2.1979 -0.2457 -0.1545
 3562SOL     OW 7408   0.244   3.604   1.280 -0.4347 -0.0677 -0.1258
 3562SOL    HW1 7409   0.337   3.591   1.264 -0.8451 -1.0096 -2.0134
 3562SOL    HW2 7410   0.237   3.696   1.307  0.7351  1.0481 -3.1822
 3563SOL     OW 7411   3.555   4.156   1.212  0.6431 -0.8363 -0.0278
 3563SOL    HW1 7412   3.499   4.215   1.262  0.0120 -0.5981 -0.9797
 3563SOL    HW2 7413   3.547   4.187   1.121  2.0082 -1.0474 -0.2375
 3564SOL     OW 7414   1.978   2.716   1.445 -0.2352 -0.1041  0.3761
 3564SOL    HW1 7415   2.049   2.764   1.487 -0.6133  1.2855 -0.5225
 3564SOL    HW2 7416   1.981   2.743   1.353  0.0211 -2.3976 -0.3636
 3565SOL     OW 7417   0.195   3.685   0.697 -0.1276 -0.0999  0.0956
 3565SOL    HW1 7418   0.191   3.667   0.791  1.0160 -0.4409  0.0931
 3565SOL    HW2 7419   0.194   3.599   0.655 -1.7427  0.0692 -0.2860
 3566SOL     OW 7420   1.039   3.309   1.743  0.2170 -0.2744  0.2856
 3566SOL    HW1 7421   0.949   3.336   1.759  0.4198  0.3283  0.4404
 3566SOL    HW2 7422   1.047   3.304   1.648  0.2018  0.3101  0.2524
 3567SOL     OW 7423   3.988   0.524   1.514 -0.0608 -0.3328  0.2162
 3567SOL    HW1 7424   3.913   0.487   1.561 -0.3217 -0.6523 -0.4382
 3567SOL    HW2 7425   4.057   0.459   1.522  0.0111 -0.2272  0.4591
 3568SOL     OW 7426   4.082   0.142   1.296 -0.2113 -0.2002 -0.2517
 3568SOL    HW1 7427   4.014   0.210   1.299 -0.3858 -0.4012  0.5844
 3568SOL    HW2 7428   4.132   0.163   1.217 -1.5931 -0.4013 -1.2303
 3569SOL     OW 7429   0.333   4.207   0.884  0.3263 -0.3330  0.8355
 3569SOL    HW1 7430   0.301   4.231   0.797  0.9543 -0.2614  0.6208
 3569SOL    HW2 7431   0.376   4.286   0.917  0.4147 -0.4713  1.0590
 3570SOL     OW 7432   1.238   3.626   0.652  0.7289  0.3718  0.3394
 3570SOL    HW1 7433   1.294   3.549   0.649  2.0068  1.1278  2.3738
 3570SOL    HW2 7434   1.299   3.699   0.668 -0.5624  1.6273 -0.2786
 3571SOL     OW 7435   3.199   3.184   3.218  1.0203 -0.1329 -0.3708
 3571SOL    HW1 7436   3.198   3.239   3.139  1.0935 -0.6478 -0.7329
 3571SOL    HW2 7437   3.225   3.244   3.288  1.8820  0.1299 -0.8951
 3572SOL     OW 7438   4.175   4.122   1.831  0.1400 -0.3026  0.4197
 3572SOL    HW1 7439   4.114   4.161   1.893 -0.2772 -0.0984 -0.1147
 3572SOL    HW2 7440   4.262   4.140   1.869 -0.1035 -0.1066  0.8969
 3573SOL     OW 7441   2.061   2.182   1.432 -0.0882  0.1943  0.1007
 3573SOL    HW1 7442   2.097   2.097   1.408  1.0753  1.1735 -1.8066
 3573SOL    HW2 7443   2.131   2.225   1.481 -0.3031  0.4419  0.1925
 3574SOL     OW 7444   0.888   3.761   0.929 -0.3828 -0.2675 -0.3758
 3574SOL    HW1 7445   0.916   3.733   0.841  2.6005  2.2178 -0.3964
 3574SOL    HW2 7446   0.961   3.735   0.986 -1.9949 -1.2819  1.3341
 3575SOL     OW 7447   0.886   3.926   1.535  0.2495  0.4219 -0.6027
 3575SOL    HW1 7448   0.941   3.940   1.613  1.9378 -0.0549 -1.6625
 3575SOL    HW2 7449   0.804   3.971   1.556  0.5455  0.0866  1.5548
 3576SOL     OW 7450   1.882   4.096   0.655 -0.2363  0.3396 -0.1330
 3576SOL    HW1 7451   1.915   4.179   0.621  1.2272 -1.0250 -2.3222
 3576SOL    HW2 7452   1.959   4.054   0.693 -0.9273 -0.1123  0.7938
 3577SOL     OW 7453   2.342   0.686   3.079 -0.3828  0.0722 -0.1592
 3577SOL    HW1 7454   2.362   0.774   3.046 -0.4084  0.4357  0.7814
 3577SOL    HW2 7455   2.425   0.654   3.114 -0.2643 -0.4705 -0.9131
 3578SOL     OW 7456   0.638   1.088   2.645 -0.0171  0.1860 -0.2844
 3578SOL    HW1 7457   0.705   1.147   2.613  0.6809 -1.4529 -2.0206
 3578SOL    HW2 7458   0.685   1.008   2.667 -1.1950 -0.4712 -0.0630
 3579SOL     OW 7459   0.304   0.457   3.219  0.1551 -0.4675 -0.3054
 3579SOL    HW1 7460   0.327   0.477   3.129 -1.0506  1.1715 -0.2894
 3579SOL    HW2 7461   0.323   0.538   3.268  2.3884 -1.8262  1.2764
 3580SOL     OW 7462   1.437   2.746   1.743 -0.7536 -0.1566  0.0343
 3580SOL    HW1 7463   1.479   2.736   1.657 -0.6752 -1.3027  0.1929
 3580SOL    HW2 7464   1.379   2.822   1.732 -1.6243 -0.9752 -1.4009
 3581SOL     OW 7465   2.827   3.465   3.406  0.7801  0.3935 -0.6221
 3581SOL    HW1 7466   2.817   3.372   3.428  0.5973  0.4665 -0.3903
 3581SOL    HW2 7467   2.747   3.506   3.439  0.2414  0.4206 -1.9204
 3582SOL     OW 7468   4.225   3.459   3.002  0.1241 -0.4605  0.1345
 3582SOL    HW1 7469   4.130   3.452   3.009  0.1878 -0.8183  0.6748
 3582SOL    HW2 7470   4.254   3.373   2.973  0.4531 -0.9720  1.8786
 3583SOL     OW 7471   1.263   0.383   3.668 -0.1238 -0.0067 -0.4006
 3583SOL    HW1 7472   1.302   0.470   3.663 -0.1729 -0.0153 -1.0769
 3583SOL    HW2 7473   1.198   0.390   3.737  1.4777 -0.1641  1.2038
 3584SOL     OW 7474   2.173   1.241   4.347 -0.3346  0.2755 -1.1288
 3584SOL    HW1 7475   2.240   1.188   4.305 -1.2854  0.1500 -2.5597
 3584SOL    HW2 7476   2.221   1.300   4.404  0.8958 -0.6006 -1.2303
 3585SOL     OW 7477   3.738   3.661   2.522  0.2412  0.1231  0.4781
 3585SOL    HW1 7478   3.782   3.601   2.582  1.7325  0.4142 -0.2766
 3585SOL    HW2 7479   3.684   3.605   2.466  0.4349 -0.3421  0.7609
 3586SOL     OW 7480   1.931   0.335   2.314  0.3708  0.1293  0.2504
 3586SOL    HW1 7481   2.026   0.329   2.310  0.3730 -0.6276  1.0414
 3586SOL    HW2 7482   1.914   0.388   2.392  0.1518  0.4915 -0.0453
 3587SOL     OW 7483   1.650   3.725   5.199 -0.1062 -0.5039 -0.0301
 3587SOL    HW1 7484   1.569   3.743   5.151 -0.7115 -0.4381  0.9920
 3587SOL    HW2 7485   1.692   3.810   5.209 -0.9631 -0.2012  1.2557
 3588SOL     OW 7486   3.791   3.852   1.712 -0.0860 -0.6139 -0.1807
 3588SOL    HW1 7487   3.788   3.812   1.799  1.1679  0.4599  0.4008
 3588SOL    HW2 7488   3.700   3.859   1.685 -0.7533  1.5955  2.2800
 3589SOL     OW 7489   1.676   0.753   2.776  0.1989 -0.1395 -0.1370
 3589SOL    HW1 7490   1.689   0.848   2.768 -1.2298  0.0675 -0.3678
 3589SOL    HW2 7491   1.601   0.745   2.835  1.0350 -1.1796  0.8172
 3590SOL     OW 7492   0.713   0.577   3.696 -0.1967  0.0309 -0.1047
 3590SOL    HW1 7493   0.653   0.567   3.770 -0.9464  0.0352 -0.7027
 3590SOL    HW2 7494   0.657   0.601   3.623  0.8304  3.0291 -0.0523
 3591SOL     OW 7495   1.930   3.035   2.070 -0.4500  0.1461 -0.9431
 3591SOL    HW1 7496   1.901   2.960   2.122  0.3379  0.1920 -0.4149
 3591SOL    HW2 7497   1.998   2.999   2.012  0.5941  0.6207 -0.0385
 3592SOL     OW 7498   2.390   2.379   2.198  0.7510  0.1173 -0.1152
 3592SOL    HW1 7499   2.345   2.440   2.256 -0.6094 -1.1002  0.1381
 3592SOL    HW2 7500   2.330   2.366   2.125  1.2082 -0.5971 -0.3760
 3593SOL     OW 7501   0.476   3.037   3.852 -0.0418 -0.4297 -0.8506
 3593SOL    HW1 7502   0.518   3.071   3.931 -1.5130  0.2696 -0.3434
 3593SOL    HW2 7503   0.427   2.961   3.881  1.0222 -1.3953 -1.4911
 3594SOL     OW 7504   1.538   4.214   1.916 -0.4809  0.1060  0.1888
 3594SOL    HW1 7505   1.462   4.271   1.902 -0.3855 -0.0171 -0.8689
 3594SOL    HW2 7506   1.584   4.255   1.990  0.1135  2.0012 -1.1512
 3595SOL     OW 7507   1.125   3.631   4.061 -0.1720  0.2429  0.1751
 3595SOL    HW1 7508   1.184   3.700   4.091  0.0058  0.2671 -0.2249
 3595SOL    HW2 7509   1.040   3.654   4.099 -1.0521  2.7959 -2.9564
 3596SOL     OW 7510   0.095   3.280   1.619 -0.5437 -0.0966 -0.2951
 3596SOL    HW1 7511   0.021   3.341   1.620 -0.3607  0.1497  1.4680
 3596SOL    HW2 7512   0.157   3.320   1.558 -1.1647  0.5596 -0.5140
 3597SOL     OW 7513   3.877   3.907   3.436  0.2987  0.0645  0.2977
 3597SOL    HW1 7514   3.948   3.943   3.489  0.6949  0.2803 -0.3584
 3597SOL    HW2 7515   3.874   3.964   3.359 -2.1751  1.5468  1.3505
 3598SOL     OW 7516   0.825   2.782   1.824  0.1270 -0.6567  0.2847
 3598SOL    HW1 7517   0.855   2.873   1.831 -1.1209 -0.2589  0.7813
 3598SOL    HW2 7518   0.906   2.730   1.824  0.9578  0.5117 -1.6526
 3599SOL     OW 7519   1.594   3.742   2.343  0.3219  0.1163  0.1140
 3599SOL    HW1 7520   1.605   3.762   2.436 -1.2156  0.3745  0.2643
 3599SOL    HW2 7521   1.571   3.649   2.341  1.0725 -0.0775 -0.0895
 3600SOL     OW 7522   3.352   3.387   1.280  0.3019 -0.1581  0.0660
 3600SOL    HW1 7523   3.403   3.315   1.244  1.7107  0.1054  1.4405
 3600SOL    HW2 7524   3.310   3.351   1.358 -0.2772  0.0880 -0.1258
 3601SOL     OW 7525   1.875   0.193   3.677 -0.1442  0.3042  0.0272
 3601SOL    HW1 7526   1.960   0.151   3.689  0.1517  0.8978  0.0616
 3601SOL    HW2 7527   1.867   0.206   3.582 -0.8749 -1.1057 -0.1375
 3602SOL     OW 7528   1.886   0.507   2.547 -0.1272  0.0772  0.1499
 3602SOL    HW1 7529   1.892   0.527   2.641 -0.9835  0.8331  0.0566
 3602SOL    HW2 7530   1.917   0.586   2.504 -1.2269  0.3275 -0.2104
 3603SOL     OW 7531   0.825   3.153   3.718  0.0732 -0.4576 -0.5033
 3603SOL    HW1 7532   0.769   3.075   3.724 -0.4246 -0.0890 -0.2688
 3603SOL    HW2 7533   0.907   3.120   3.681  0.9242 -1.6424  2.1463
 3604SOL     OW 7534   3.034   2.989   2.615  0.6209  0.2647  0.0986
 3604SOL    HW1 7535   3.086   2.955   2.688 -0.2266  0.5134  0.8249
 3604SOL    HW2 7536   3.064   2.938   2.539  1.2555 -0.2430  0.6764
 3605SOL     OW 7537   2.309   4.087   3.027 -0.1739  0.2418  0.1655
 3605SOL    HW1 7538   2.327   4.031   3.103  0.0627 -0.7307 -0.5860
 3605SOL    HW2 7539   2.383   4.072   2.968 -0.8875  0.1361 -0.7298
 3606SOL     OW 7540   4.204   3.903   1.640 -0.0753  0.1559 -0.0995
 3606SOL    HW1 7541   4.165   3.951   1.567 -0.5514 -2.8472 -1.9996
 3606SOL    HW2 7542   4.174   3.950   1.718 -3.1732  1.0708 -1.6600
 3607SOL     OW 7543   1.877   1.760   2.190 -0.7639 -0.0092 -0.0341
 3607SOL    HW1 7544   1.901   1.836   2.137 -0.8787 -0.4247 -0.6896
 3607SOL    HW2 7545   1.893   1.685   2.133  0.0845 -0.5355  0.8778
 3608SOL     OW 7546   0.281   4.137   3.490 -0.0580 -0.0909  0.3803
 3608SOL    HW1 7547   0.243   4.130   3.577  0.8250  0.3377  0.8150
 3608SOL    HW2 7548   0.367   4.094   3.497 -0.7135 -1.7201 -0.7696
 3609SOL     OW 7549   3.118   4.238   2.568 -0.1990 -0.0485 -0.1032
 3609SOL    HW1 7550   3.094   4.238   2.661 -0.7206 -1.0766 -0.2272
 3609SOL    HW2 7551   3.039   4.269   2.523  0.4519  1.6622 -0.1306
 3610SOL     OW 7552   2.522   0.396   2.054 -0.3936 -0.0831  0.9325
 3610SOL    HW1 7553   2.524   0.456   2.128  0.9848 -0.7780  1.4859
 3610SOL    HW2 7554   2.539   0.451   1.978  0.1573  0.3454  1.3590
 3611SOL     OW 7555   1.162   3.573   3.685 -0.3221  0.7621  0.2065
 3611SOL    HW1 7556   1.081   3.524   3.669 -1.0751  2.0010  0.0746
 3611SOL    HW2 7557   1.231   3.521   3.644 -0.9311 -0.7247  1.0171
 3612SOL     OW 7558   2.388   0.934   2.966 -0.2916  0.5583  0.3765
 3612SOL    HW1 7559   2.364   0.969   2.879 -1.3119 -1.3477 -0.1569
 3612SOL    HW2 7560   2.477   0.967   2.981 -0.4549  1.7172 -0.9482
 3613SOL     OW 7561   1.348   3.790   4.475 -0.1982  0.2214  0.1497
 3613SOL    HW1 7562   1.341   3.737   4.555 -1.2599 -0.5901 -0.4534
 3613SOL    HW2 7563   1.319   3.877   4.501  2.0825  0.7399  1.2963
 3614SOL     OW 7564   0.618   3.207   3.295 -0.1915 -0.6188 -0.3002
 3614SOL    HW1 7565   0.621   3.228   3.201  0.3374  0.3655 -0.0732
 3614SOL    HW2 7566   0.525   3.198   3.314 -0.4033  0.6981 -0.6058
 3615SOL     OW 7567   2.080   4.060   2.606  0.0516 -0.1161 -0.0726
 3615SOL    HW1 7568   2.049   4.015   2.685  1.0717 -1.5600 -0.4637
 3615SOL    HW2 7569   2.002   4.069   2.551 -0.3222 -0.6919  0.3517
 3616SOL     OW 7570   1.854   0.763   1.677 -0.2049 -0.4894 -0.9178
 3616SOL    HW1 7571   1.763   0.760   1.649  0.4085 -0.1493 -3.0937
 3616SOL    HW2 7572   1.870   0.677   1.715 -1.8329 -0.0212  1.0330
 3617SOL     OW 7573   1.448   2.622   2.542  0.1847  0.4296 -0.0513
 3617SOL    HW1 7574   1.426   2.600   2.452 -1.6539  0.3072  0.3896
 3617SOL    HW2 7575   1.383   2.576   2.595  0.3860  1.5703  1.2504
 3618SOL     OW 7576   4.200   0.932   3.916 -0.1119 -0.1210  0.0414
 3618SOL    HW1 7577   4.140   0.929   3.991 -1.9296 -1.2009 -1.3666
 3618SOL    HW2 7578   4.285   0.906   3.952 -0.9345 -0.6735  1.7013
 3619SOL     OW 7579   1.732   3.530   2.681 -0.2999  0.2498 -0.0772
 3619SOL    HW1 7580   1.675   3.455   2.668 -1.0939  0.5243  1.5449
 3619SOL    HW2 7581   1.795   3.501   2.748  0.4804  0.4649 -0.7075
 3620SOL     OW 7582   0.753   3.655   2.144  0.1088  0.1560 -0.1295
 3620SOL    HW1 7583   0.741   3.573   2.096  2.7392  0.4706 -1.5235
 3620SOL    HW2 7584   0.729   3.723   2.081 -2.4830  0.5848  1.1545
 3621SOL     OW 7585   3.639   3.171   2.949  0.0370  1.0433 -0.4106
 3621SOL    HW1 7586   3.554   3.126   2.944  0.3244  0.6170 -1.8506
 3621SOL    HW2 7587   3.685   3.144   2.870  2.1058  0.1100  1.0227
 3622SOL     OW 7588   3.907   3.300   2.987  0.3327 -0.0127  0.1845
 3622SOL    HW1 7589   3.936   3.212   2.962 -0.8192 -0.6572  1.0416
 3622SOL    HW2 7590   3.812   3.293   2.994  0.2876  1.1286  0.9312
 3623SOL     OW 7591   1.835   0.068   2.876  0.2713  0.1551 -0.5029
 3623SOL    HW1 7592   1.878   0.081   2.960 -0.2702  0.1374 -0.2143
 3623SOL    HW2 7593   1.785   0.149   2.861  1.3502  0.6745 -1.4144
 3624SOL     OW 7594   1.609   3.114   1.136 -0.0857  0.6203  0.2435
 3624SOL    HW1 7595   1.612   3.205   1.108 -0.9187  0.9789  1.2269
 3624SOL    HW2 7596   1.694   3.078   1.112  0.8136  2.0555  1.1178
 3625SOL     OW 7597   1.718   3.995   3.156 -0.5227  0.3291 -0.4941
 3625SOL    HW1 7598   1.738   4.030   3.069  0.5942  2.7610  0.6391
 3625SOL    HW2 7599   1.628   4.024   3.173 -0.1101  1.5039 -0.1633
 3626SOL     OW 7600   0.723   3.974   2.159  0.7131 -0.2100  0.0709
 3626SOL    HW1 7601   0.674   4.054   2.181  0.7523 -0.4207  0.9631
 3626SOL    HW2 7602   0.732   3.928   2.243  2.3623 -0.2246 -0.0859
 3627SOL     OW 7603   2.136   0.126   3.751 -0.1209  0.0800 -0.8606
 3627SOL    HW1 7604   2.226   0.094   3.757 -0.6332 -1.2506  0.1498
 3627SOL    HW2 7605   2.145   0.215   3.717  1.5590 -0.0833 -0.9377
 3628SOL     OW 7606   0.200   2.509   3.866  0.1982 -0.0575 -0.2437
 3628SOL    HW1 7607   0.226   2.587   3.815 -1.4730  1.2569  0.8017
 3628SOL    HW2 7608   0.105   2.510   3.863  0.1342 -2.0639 -0.1075
 3629SOL     OW 7609   1.518   4.109   4.563 -0.2597 -0.3254  0.1226
 3629SOL    HW1 7610   1.559   4.089   4.479 -0.4447 -0.3622  0.0399
 3629SOL    HW2 7611   1.573   4.177   4.601 -1.0340  0.8380 -0.7392
 3630SOL     OW 7612   0.734   2.426   4.349 -0.4610 -0.5481 -0.0247
 3630SOL    HW1 7613   0.778   2.502   4.389  0.2360 -0.3609 -1.1043
 3630SOL    HW2 7614   0.805   2.374   4.312 -1.1205  0.0938 -2.3823
 3631SOL     OW 7615   0.769   1.305   4.886 -0.7038  0.1530  0.1830
 3631SOL    HW1 7616   0.691   1.361   4.883 -0.5034  0.4577  0.5628
 3631SOL    HW2 7617   0.744   1.232   4.942 -1.6227 -1.1787 -1.8369
 3632SOL     OW 7618   2.307   3.308   5.653  0.5912  0.0783  0.0772
 3632SOL    HW1 7619   2.274   3.346   5.735  0.3137 -0.9234  0.4467
 3632SOL    HW2 7620   2.254   3.349   5.585 -1.2103 -1.1966  0.6268
 3633SOL     OW 7621   0.397   3.508   4.412  0.0782 -0.4805  0.6158
 3633SOL    HW1 7622   0.463   3.459   4.462 -0.9698 -2.3432  0.2476
 3633SOL    HW2 7623   0.319   3.506   4.467  0.0054  0.8556  0.6035
 3634SOL     OW 7624   0.810   3.848   7.485 -0.4089  0.2406  0.1622
 3634SOL    HW1 7625   0.837   3.917   7.425 -0.5713  0.6219  0.5202
 3634SOL    HW2 7626   0.747   3.796   7.436  0.0115  0.1074 -0.2436
 3635SOL     OW 7627   1.869   0.365   4.875 -0.1875  0.5748 -0.4252
 3635SOL    HW1 7628   1.800   0.338   4.815 -0.1928  0.5673 -0.4156
 3635SOL    HW2 7629   1.840   0.451   4.907 -0.1772  0.5859 -0.4455
 3636SOL     OW 7630   4.031   2.196   4.228 -0.2771 -0.4626  0.1328
 3636SOL    HW1 7631   3.999   2.109   4.205 -3.1773  0.4362  0.3116
 3636SOL    HW2 7632   4.124   2.194   4.206 -0.2087 -3.5933  0.2001
 3637SOL     OW 7633   0.225   3.869   4.577 -0.2764 -0.1142 -0.1883
 3637SOL    HW1 7634   0.194   3.780   4.596 -0.8775 -0.2444 -1.5888
 3637SOL    HW2 7635   0.148   3.924   4.591 -0.6532 -0.1782 -1.7522
 3638SOL     OW 7636   0.796   1.287   4.150  0.7644 -0.2641 -0.1308
 3638SOL    HW1 7637   0.805   1.192   4.161  1.9626 -0.2258 -0.6519
 3638SOL    HW2 7638   0.770   1.319   4.236 -1.3845 -1.2428 -0.3440
 3639SOL     OW 7639   0.843   0.916   5.646  0.1476 -0.6541 -0.2696
 3639SOL    HW1 7640   0.759   0.930   5.689 -0.7310  0.4772 -2.2534
 3639SOL    HW2 7641   0.900   0.984   5.684 -0.1630 -0.6429  0.1893
 3640SOL     OW 7642   1.195   3.596   3.040  0.6972 -0.1461 -0.4307
 3640SOL    HW1 7643   1.130   3.576   3.107 -1.0427  2.6515 -1.1070
 3640SOL    HW2 7644   1.146   3.645   2.973  3.4031  1.7607 -1.1686
 3641SOL     OW 7645   1.244   3.673   5.481  0.0786  0.1935  0.3189
 3641SOL    HW1 7646   1.191   3.725   5.421 -0.1653 -0.4158 -0.0051
 3641SOL    HW2 7647   1.188   3.599   5.504  1.1499 -1.0317 -0.8582
 3642SOL     OW 7648   0.823   3.936   4.936  0.8996  0.5965 -0.0036
 3642SOL    HW1 7649   0.797   3.849   4.906  2.7748 -0.8952  2.2906
 3642SOL    HW2 7650   0.767   3.952   5.013 -0.6377  2.2845 -1.3749
 3643SOL     OW 7651   2.665   2.756   6.688  0.2156 -0.0353 -0.3305
 3643SOL    HW1 7652   2.619   2.828   6.731  0.0481  0.5011 -1.3701
 3643SOL    HW2 7653   2.638   2.678   6.736 -0.5131  0.4564  0.0801
 3644SOL     OW 7654   1.509   0.557   6.517 -0.1404 -0.3157 -0.2093
 3644SOL    HW1 7655   1.594   0.547   6.561  1.3287  1.6627 -2.3163
 3644SOL    HW2 7656   1.451   0.495   6.561  1.7668 -0.0973  2.8539
 3645SOL     OW 7657   0.887   3.750   3.718  0.4781 -0.1610 -0.0112
 3645SOL    HW1 7658   0.928   3.722   3.635  0.4106 -0.3841  0.0284
 3645SOL    HW2 7659   0.887   3.671   3.772  0.8173  0.0680  0.3226
 3646SOL     OW 7660   0.388   2.996   3.438 -0.5320  0.0951  0.1497
 3646SOL    HW1 7661   0.299   3.028   3.423 -1.4475 -1.2303  2.2511
 3646SOL    HW2 7662   0.415   3.038   3.520  0.0659 -0.9295  0.4875
 3647SOL     OW 7663   1.028   4.280   4.878 -0.0593  0.2912 -0.1330
 3647SOL    HW1 7664   1.030   4.195   4.835 -1.2215  0.0641  0.2247
 3647SOL    HW2 7665   1.095   4.274   4.946  1.3755  0.4444 -1.4622
 3648SOL     OW 7666   4.241   4.192   6.057  0.0151 -0.5062  0.0506
 3648SOL    HW1 7667   4.257   4.099   6.070  2.3898 -0.2332 -0.3901
 3648SOL    HW2 7668   4.326   4.227   6.028 -1.2473  1.4861 -1.4852
 3649SOL     OW 7669   3.634   3.477   3.020 -0.0977 -0.0536 -0.1994
 3649SOL    HW1 7670   3.586   3.395   3.030  1.3688 -1.1515 -1.5841
 3649SOL    HW2 7671   3.635   3.516   3.108 -1.2363 -1.2696  0.3716
 3650SOL     OW 7672   0.036   0.637   3.256  0.1053  0.1365 -0.2279
 3650SOL    HW1 7673   0.037   0.543   3.274 -1.7284 -0.2051 -1.6220
 3650SOL    HW2 7674   0.091   0.647   3.178 -0.1986  0.1061 -0.4508
 3651SOL     OW 7675   0.633   3.574   3.567  0.2283  0.4329  0.0918
 3651SOL    HW1 7676   0.667   3.570   3.656  0.5436  0.0651 -0.0376
 3651SOL    HW2 7677   0.661   3.659   3.534 -2.4416  1.8774  1.3197
 3652SOL     OW 7678   1.138   2.120   6.124  0.5798 -0.3978 -0.0885
 3652SOL    HW1 7679   1.170   2.031   6.132  1.3110 -0.0172  1.5196
 3652SOL    HW2 7680   1.092   2.137   6.206 -0.8897  0.2083 -0.9974
 3653SOL     OW 7681   0.311   3.705   2.880  0.5330 -0.0675 -0.6629
 3653SOL    HW1 7682   0.365   3.758   2.938 -0.2283 -1.3115  1.2998
 3653SOL    HW2 7683   0.224   3.704   2.922  0.2927 -2.0768 -1.0782
 3654SOL     OW 7684   0.603   2.419   5.380  0.1677  0.2445 -0.4482
 3654SOL    HW1 7685   0.677   2.464   5.340 -0.9253  1.8303 -0.7762
 3654SOL    HW2 7686   0.545   2.489   5.410 -0.1033 -0.9117  1.9478
 3655SOL     OW 7687   1.237   1.602   4.105 -0.4285 -0.0747 -0.0440
 3655SOL    HW1 7688   1.161   1.569   4.153 -0.4588  1.3784  0.9594
 3655SOL    HW2 7689   1.203   1.673   4.050  0.3013  1.2223  1.1069
 3656SOL     OW 7690   0.598   2.740   3.919 -0.8058  0.6133  0.5608
 3656SOL    HW1 7691   0.507   2.727   3.943 -0.5369  1.1920  2.0271
 3656SOL    HW2 7692   0.641   2.658   3.941 -1.1482 -0.1271 -1.3129
 3657SOL     OW 7693   0.995   0.030   3.961 -0.1663  0.4764 -0.0279
 3657SOL    HW1 7694   0.982  -0.040   3.898 -0.9512  1.0713 -0.5552
 3657SOL    HW2 7695   0.940   0.102   3.928  1.7795  1.8809 -0.3582
 3658SOL     OW 7696   0.299   0.851   4.698  0.0496 -0.0837  0.8044
 3658SOL    HW1 7697   0.389   0.877   4.718 -0.0634  0.1689  0.9938
 3658SOL    HW2 7698   0.245   0.909   4.752 -0.1883 -2.0702  2.8032
 3659SOL     OW 7699   2.560   1.063   5.885 -0.8569  0.0716 -0.4278
 3659SOL    HW1 7700   2.583   0.970   5.883  1.5112  0.5354  1.1865
 3659SOL    HW2 7701   2.541   1.081   5.977 -2.0337  1.0597 -0.8414
 3660SOL     OW 7702   0.762   3.506   5.014 -0.0916 -0.1243  0.1460
 3660SOL    HW1 7703   0.718   3.588   4.993 -0.5420 -0.0327  1.3287
 3660SOL    HW2 7704   0.845   3.533   5.053  0.3570 -0.2654 -0.7057
 3661SOL     OW 7705   1.965   4.045   4.543 -0.2335 -0.6802 -0.2819
 3661SOL    HW1 7706   2.026   4.048   4.617  0.4796 -1.5678 -0.8199
 3661SOL    HW2 7707   1.929   3.957   4.545 -1.2432 -0.2805 -0.1974
 3662SOL     OW 7708   1.867   2.280   5.691  0.5043 -0.0911  0.5539
 3662SOL    HW1 7709   1.895   2.191   5.713  2.7013  0.4439  0.1611
 3662SOL    HW2 7710   1.922   2.305   5.617 -2.3707  0.4398 -1.5866
 3663SOL     OW 7711   2.633   4.059   5.044 -0.2688  0.2206  0.5858
 3663SOL    HW1 7712   2.688   3.996   5.093 -0.0867 -1.0512 -1.1609
 3663SOL    HW2 7713   2.553   4.010   5.024 -0.4849  0.8312 -0.0756
 3664SOL     OW 7714   3.437   4.025   4.469  0.5197  0.1073 -0.2605
 3664SOL    HW1 7715   3.368   4.090   4.455  1.3063  1.2866  1.0957
 3664SOL    HW2 7716   3.514   4.064   4.428  0.6131 -0.7787 -0.9430
 3665SOL     OW 7717   0.204   3.352   3.587  0.5396  0.2477  0.4321
 3665SOL    HW1 7718   0.248   3.310   3.661  2.1398  0.5635 -0.2898
 3665SOL    HW2 7719   0.267   3.418   3.556 -0.8285  1.3693 -0.1000
 3666SOL     OW 7720   1.302   3.649   5.171  0.2322 -0.0731  0.5624
 3666SOL    HW1 7721   1.319   3.563   5.134  1.9093  0.4574 -0.0236
 3666SOL    HW2 7722   1.278   3.632   5.262 -2.3362 -1.2965 -0.2671
 3667SOL     OW 7723   1.072   1.595   4.799 -0.3293 -0.0652  0.5056
 3667SOL    HW1 7724   1.062   1.581   4.893 -1.6439 -1.4536  0.1989
 3667SOL    HW2 7725   1.161   1.568   4.780 -0.0637  0.1936  1.3452
 3668SOL     OW 7726   1.211   2.932   4.114 -0.5523 -0.0091  0.1803
 3668SOL    HW1 7727   1.272   2.870   4.075  0.2198 -0.2529  1.6918
 3668SOL    HW2 7728   1.134   2.880   4.136 -0.0657 -0.3636  1.0761
 3669SOL     OW 7729   1.732   0.660   4.355  0.3869  0.4719  0.3394
 3669SOL    HW1 7730   1.760   0.641   4.444  0.7898  1.0549  0.3433
 3669SOL    HW2 7731   1.651   0.709   4.364  0.8613  1.2660  0.4237
 3670SOL     OW 7732   2.642   2.276   5.013 -0.1597 -0.2815  0.1073
 3670SOL    HW1 7733   2.614   2.185   5.002  1.5732 -0.9671  0.9831
 3670SOL    HW2 7734   2.736   2.275   4.996  0.4828  0.7261  2.9116
 3671SOL     OW 7735   0.877   4.052   4.237 -0.3729  0.1931  0.3463
 3671SOL    HW1 7736   0.919   4.139   4.232 -3.2634  1.7434  0.7548
 3671SOL    HW2 7737   0.847   4.046   4.328 -1.9096 -0.3398 -0.1694
 3672SOL     OW 7738   1.416   0.610   5.946 -0.0666 -0.2328  0.2972
 3672SOL    HW1 7739   1.397   0.517   5.957  0.2243 -0.1708  1.4703
 3672SOL    HW2 7740   1.471   0.633   6.021  2.9091  0.1085 -1.8280
 3673SOL     OW 7741   3.717   0.912   3.892  0.3010  0.1681  0.0148
 3673SOL    HW1 7742   3.632   0.944   3.921  0.0490 -0.8496  0.4207
 3673SOL    HW2 7743   3.707   0.900   3.797 -0.6395 -1.7990  0.3288
 3674SOL     OW 7744   1.033   2.780   4.521 -0.4200 -0.2158  0.7697
 3674SOL    HW1 7745   1.017   2.692   4.555  4.7687 -0.9902  1.9389
 3674SOL    HW2 7746   1.036   2.770   4.426  1.4452 -1.6768  0.9428
 3675SOL     OW 7747   0.563   1.816   5.575  0.5752  0.5834  0.3887
 3675SOL    HW1 7748   0.471   1.841   5.581 -0.7074 -2.9731 -1.3793
 3675SOL    HW2 7749   0.598   1.871   5.504 -1.0822 -0.0360 -0.9834
 3676SOL     OW 7750   1.156   3.936   7.382  0.2610 -0.4605 -0.3681
 3676SOL    HW1 7751   1.169   3.841   7.376 -0.3877 -0.5674 -0.1574
 3676SOL    HW2 7752   1.123   3.961   7.296  0.2625 -0.4512 -0.3663
 3677SOL     OW 7753   1.959   0.553   4.250 -0.0299 -0.1487 -0.4844
 3677SOL    HW1 7754   1.879   0.591   4.285  0.3672 -1.0110  1.4935
 3677SOL    HW2 7755   1.944   0.459   4.253  1.1411 -0.3378  0.2112
 3678SOL     OW 7756   3.211   0.505   5.808  0.0593 -0.1482 -0.1825
 3678SOL    HW1 7757   3.237   0.413   5.819 -0.5730 -0.1801  1.4388
 3678SOL    HW2 7758   3.283   0.555   5.846  1.3464  0.1705 -2.8814
 3679SOL     OW 7759   4.017   2.587   7.111 -0.2370  0.2539 -0.1717
 3679SOL    HW1 7760   3.993   2.514   7.169 -0.6488  1.1215  0.7818
 3679SOL    HW2 7761   4.112   2.588   7.111 -0.2314 -0.1280  0.0098
 3680SOL     OW 7762   2.597   1.739   6.997 -0.4294  0.6780  0.1819
 3680SOL    HW1 7763   2.609   1.662   6.941  1.2995  0.6887  0.4849
 3680SOL    HW2 7764   2.607   1.813   6.938  3.4106  0.7473  0.6837
 3681SOL     OW 7765   0.119   4.177   5.350 -0.0875 -0.4512  0.3085
 3681SOL    HW1 7766   0.133   4.113   5.280 -0.3882 -1.0825  0.8086
 3681SOL    HW2 7767   0.023   4.183   5.357 -0.0642 -0.8840  1.0937
 3682SOL     OW 7768   1.788   0.448   5.844  0.3203  0.4243  0.3717
 3682SOL    HW1 7769   1.775   0.475   5.753 -1.4182  1.4190  0.8834
 3682SOL    HW2 7770   1.728   0.375   5.856  1.0082 -0.1232  0.5668
 3683SOL     OW 7771   1.778   0.947   6.196  0.0339 -0.0534 -0.0218
 3683SOL    HW1 7772   1.718   0.901   6.255 -0.3372 -0.7889 -0.9477
 3683SOL    HW2 7773   1.863   0.909   6.215  0.7509  2.6165  2.9851
 3684SOL     OW 7774   1.351   4.178   7.688  0.6688  0.0651  0.4518
 3684SOL    HW1 7775   1.394   4.146   7.768  1.4692  0.5664  0.2373
 3684SOL    HW2 7776   1.374   4.271   7.684  0.5776  0.0592 -0.3267
 3685SOL     OW 7777   1.845   3.654   6.305 -0.5635  0.2352 -0.4097
 3685SOL    HW1 7778   1.896   3.577   6.280  2.1579  1.8139 -0.0633
 3685SOL    HW2 7779   1.899   3.699   6.370 -3.0930  1.3058  1.1254
 3686SOL     OW 7780   1.841   4.127   6.678  0.5471  0.1465 -0.1513
 3686SOL    HW1 7781   1.917   4.158   6.728  1.2704 -0.0245 -1.1010
 3686SOL    HW2 7782   1.771   4.188   6.700  1.2124  0.8435  0.0614
 3687SOL     OW 7783   0.709   0.412   7.477  0.5060  0.1080 -0.3321
 3687SOL    HW1 7784   0.793   0.408   7.432  0.9580 -0.9243  0.5752
 3687SOL    HW2 7785   0.658   0.339   7.441  0.4933 -0.0949  0.0968
 3688SOL     OW 7786   1.462   2.060   6.720  0.1410 -0.0699  0.4239
 3688SOL    HW1 7787   1.476   2.086   6.811  0.0153  1.2670  0.0767
 3688SOL    HW2 7788   1.549   2.037   6.687 -0.0033 -2.0994  1.2990
 3689SOL     OW 7789   1.620   4.008   7.680 -0.4036  0.1029 -0.4498
 3689SOL    HW1 7790   1.708   4.003   7.717 -0.4669  0.6997 -0.2065
 3689SOL    HW2 7791   1.600   4.102   7.678 -1.3974 -0.0756  0.3714
 3690SOL     OW 7792   0.909   0.694   6.227 -0.0742 -0.0805 -0.2524
 3690SOL    HW1 7793   0.864   0.637   6.164  0.3789 -1.0773  0.2870
 3690SOL    HW2 7794   0.844   0.760   6.251 -0.3896  0.0487 -1.4284
 3691SOL     OW 7795   0.518   3.746   6.952 -0.3488  0.7264  0.2949
 3691SOL    HW1 7796   0.474   3.710   7.029 -0.3083  1.8424  0.8548
 3691SOL    HW2 7797   0.611   3.743   6.974 -0.2686  0.1862 -0.0966
 3692SOL     OW 7798   0.472   4.027   6.105 -0.4570  0.4720 -0.6273
 3692SOL    HW1 7799   0.454   4.054   6.195  0.0478  2.2491 -1.0170
 3692SOL    HW2 7800   0.551   3.973   6.112 -0.7525  0.1038  0.0412
 3693SOL     OW 7801   3.903   0.881   6.147 -0.2235 -0.2364 -0.1599
 3693SOL    HW1 7802   3.879   0.934   6.223 -0.2266 -1.7596  0.9357
 3693SOL    HW2 7803   3.881   0.791   6.172  3.5109 -1.3578 -0.2834
 3694SOL     OW 7804   1.192   0.854   6.003  0.2560  0.3866  0.0917
 3694SOL    HW1 7805   1.198   0.948   5.984  2.2185  1.1332  3.5443
 3694SOL    HW2 7806   1.281   0.821   5.990 -0.4680 -1.1445 -1.3599
 3695SOL     OW 7807   0.644   0.588   7.056 -0.3917 -0.3984 -0.6619
 3695SOL    HW1 7808   0.601   0.504   7.072 -0.8386  0.0281  0.4616
 3695SOL    HW2 7809   0.726   0.564   7.012 -0.0679 -1.5097  0.4591
 3696SOL     OW 7810   0.895   0.890   6.018  0.0073 -0.6358  0.0103
 3696SOL    HW1 7811   0.847   0.814   5.987  0.2479 -0.8096  0.0566
 3696SOL    HW2 7812   0.967   0.854   6.070 -1.9090 -0.3269  3.1323
 3697SOL     OW 7813   0.482   3.338   6.492 -0.6530  0.2901  0.0413
 3697SOL    HW1 7814   0.566   3.314   6.531 -0.9639 -0.1549  0.4362
 3697SOL    HW2 7815   0.437   3.255   6.479 -0.5196  0.4073 -1.3635
 3698SOL     OW 7816   2.343   3.797   6.995 -0.7941 -0.0141 -0.3438
 3698SOL    HW1 7817   2.413   3.734   7.015 -0.6526 -0.6471 -2.5744
 3698SOL    HW2 7818   2.331   3.845   7.076  2.9106  0.7628 -0.0640
 3699SOL     OW 7819   0.087   4.007   7.176  0.1927 -0.1499 -0.0563
 3699SOL    HW1 7820  -0.009   4.011   7.169  0.0294 -0.6051  1.6362
 3699SOL    HW2 7821   0.105   4.022   7.268  1.8627  1.1912 -0.5469
 3700SOL     OW 7822   1.023   0.128   6.880 -0.3450  0.3621  0.4739
 3700SOL    HW1 7823   1.080   0.150   6.807 -0.7403  1.6304  0.5358
 3700SOL    HW2 7824   1.042   0.193   6.947 -1.0843  0.1450  0.9150
 3701SOL     OW 7825   0.790   3.080   7.276  0.0377 -0.3266  0.2071
 3701SOL    HW1 7826   0.777   3.114   7.365  1.9696 -0.1502  0.4655
 3701SOL    HW2 7827   0.868   3.025   7.283  0.2831 -0.2213 -1.4139
 3702SOL     OW 7828   0.138   4.111   6.868  0.2053 -0.0888 -1.2208
 3702SOL    HW1 7829   0.135   4.111   6.963 -0.5015 -1.0639 -1.2243
 3702SOL    HW2 7830   0.132   4.203   6.843 -0.1042  0.1328 -0.3395
 3703SOL     OW 7831   1.160   0.705   7.219 -0.5450  0.1744 -0.2769
 3703SOL    HW1 7832   1.250   0.717   7.190 -0.4877  1.6254  0.4086
 3703SOL    HW2 7833   1.146   0.773   7.285 -1.3928 -1.5220  1.4126
 3704SOL     OW 7834   1.236   0.345   7.715 -0.3104  0.0654 -0.3564
 3704SOL    HW1 7835   1.160   0.288   7.728 -0.2126  0.4453  2.5685
 3704SOL    HW2 7836   1.198   0.433   7.705 -0.3139  0.2259  0.8950
 3705SOL     OW 7837   0.413   1.763   5.999 -0.4545 -0.0620  0.1803
 3705SOL    HW1 7838   0.390   1.854   5.981 -1.9207 -0.0540  1.8038
 3705SOL    HW2 7839   0.336   1.727   6.044  0.6196 -1.7179  0.8134
 3706SOL     OW 7840   2.663   3.648   5.491 -0.0933 -0.0889  0.7874
 3706SOL    HW1 7841   2.603   3.633   5.564  0.0500 -0.7067  0.7883
 3706SOL    HW2 7842   2.750   3.628   5.527  0.1289  0.8314  0.7980
 3707SOL     OW 7843   0.961   3.851   6.701 -0.2235  0.0350  0.0041
 3707SOL    HW1 7844   0.928   3.833   6.613 -1.5185 -0.9831  0.6586
 3707SOL    HW2 7845   0.932   3.776   6.753 -2.4129  2.1128  2.0342
 3708SOL     OW 7846   4.198   4.274   7.079 -0.3088 -0.1480  0.6071
 3708SOL    HW1 7847   4.121   4.294   7.134 -1.7817  0.0880 -1.4149
 3708SOL    HW2 7848   4.168   4.205   7.021  0.0832  1.7317 -2.0077
 3709SOL     OW 7849   0.520   0.346   6.502  0.1855  0.0956  0.3122
 3709SOL    HW1 7850   0.460   0.324   6.431  1.1094  1.0289 -0.8085
 3709SOL    HW2 7851   0.550   0.262   6.536  0.2564 -0.3756 -0.8702
 3710SOL     OW 7852   0.744   4.171   7.699  0.5535 -0.2936 -0.4011
 3710SOL    HW1 7853   0.766   4.197   7.610 -0.2595  1.1542 -0.2194
 3710SOL    HW2 7854   0.738   4.254   7.747 -0.1878 -0.9659  0.7119
 3711SOL     OW 7855   4.182   4.315   4.346  0.3569 -0.5854  0.2851
 3711SOL    HW1 7856   4.268   4.276   4.331  0.9424  0.9597 -0.6644
 3711SOL    HW2 7857   4.201   4.398   4.390 -0.2953  1.2688 -2.6146
 3712SOL     OW 7858   1.769   0.580   5.538  0.4376  0.1492  0.4246
 3712SOL    HW1 7859   1.782   0.522   5.464 -2.0924 -0.0874  0.0629
 3712SOL    HW2 7860   1.854   0.621   5.553  2.1392 -3.0217  0.2198
 3713SOL     OW 7861   2.038   1.043   6.536  0.0915  0.8295 -0.0165
 3713SOL    HW1 7862   2.004   1.020   6.450  0.7520  1.3029 -0.4160
 3713SOL    HW2 7863   1.967   1.022   6.597 -0.0092 -0.5145 -0.5516
 3714SOL     OW 7864   0.129   3.660   6.217  0.3403 -0.5943  0.2199
 3714SOL    HW1 7865   0.061   3.601   6.186  0.5980 -0.7025 -0.1535
 3714SOL    HW2 7866   0.207   3.637   6.166 -0.1127  1.5857 -1.6351
 3715SOL     OW 7867   1.628   3.763   6.412  0.7531  0.3798 -0.3467
 3715SOL    HW1 7868   1.707   3.737   6.365 -0.3554 -1.0355 -1.5469
 3715SOL    HW2 7869   1.659   3.816   6.485  3.1693 -3.3582  1.6400
 3716SOL     OW 7870   0.892   4.233   7.454 -0.1852 -0.6523 -0.6197
 3716SOL    HW1 7871   0.913   4.321   7.422 -1.5607  0.5286  1.4983
 3716SOL    HW2 7872   0.967   4.208   7.507 -0.2615 -0.2866 -0.3373
 3717SOL     OW 7873   0.745   0.904   6.268 -0.8171  0.4596  0.3434
 3717SOL    HW1 7874   0.726   0.917   6.175 -1.0029 -2.4660 -0.1124
 3717SOL    HW2 7875   0.679   0.958   6.313  0.0161  2.8869 -1.1256
 3718SOL     OW 7876   3.317   3.915   7.110 -0.0162 -0.0739 -0.3279
 3718SOL    HW1 7877   3.294   3.901   7.018 -0.0369 -1.2082 -0.1683
 3718SOL    HW2 7878   3.365   3.836   7.135 -3.6845 -1.9075  1.8236
 3719SOL     OW 7879   1.863   0.105   7.345  0.2234 -0.5097 -0.3714
 3719SOL    HW1 7880   1.841   0.014   7.363  1.4557 -1.0603 -1.5070
 3719SOL    HW2 7881   1.788   0.138   7.295 -1.6502  0.0604  2.5637
 3720SOL     OW 7882   1.778   3.728   7.523 -0.0810  0.0195 -0.5033
 3720SOL    HW1 7883   1.773   3.808   7.575 -3.3480  0.3621 -1.1502
 3720SOL    HW2 7884   1.732   3.662   7.575  0.9892 -0.9919 -0.7897
 3721SOL     OW 7885   2.555   1.769   6.660 -0.0350  0.2763  0.3744
 3721SOL    HW1 7886   2.548   1.763   6.564  0.2916  1.8884  0.2138
 3721SOL    HW2 7887   2.469   1.799   6.688 -0.7912 -2.1566  0.8383
 3722SOL     OW 7888   0.677   3.667   6.466  0.0011 -0.8203 -0.2287
 3722SOL    HW1 7889   0.633   3.660   6.381  1.7408 -1.0679 -1.1707
 3722SOL    HW2 7890   0.610   3.646   6.530 -1.5175 -0.0806 -1.5002
 3723SOL     OW 7891   2.144   0.427   6.966  0.1919  0.7721  0.0807
 3723SOL    HW1 7892   2.171   0.510   6.927 -1.5671  1.3720  0.0128
 3723SOL    HW2 7893   2.122   0.450   7.057  0.2956  0.2488  0.2371
 3724SOL     OW 7894   2.234   0.710   5.714 -0.1580  0.6866 -0.2709
 3724SOL    HW1 7895   2.324   0.689   5.740 -0.6973 -0.0450  1.1134
 3724SOL    HW2 7896   2.180   0.645   5.759 -1.7065  3.3172  1.9889
 3725SOL     OW 7897   2.121   3.262   6.351  0.0892  0.2282 -0.2175
 3725SOL    HW1 7898   2.077   3.333   6.304  0.5977 -0.6701 -2.1397
 3725SOL    HW2 7899   2.151   3.303   6.432  0.7916  2.3621 -1.4563
 3726SOL     OW 7900   1.841   0.707   6.341  0.4293  0.0035  0.0774
 3726SOL    HW1 7901   1.776   0.691   6.273 -2.1188  3.7546  1.3357
 3726SOL    HW2 7902   1.810   0.657   6.417 -0.4731  0.9478  0.3538
 3727SOL     OW 7903   0.110   4.197   4.417 -0.2828  0.1560 -0.3529
 3727SOL    HW1 7904   0.077   4.191   4.506 -2.0011 -0.0415 -0.9532
 3727SOL    HW2 7905   0.198   4.160   4.420 -1.2937 -2.3595  0.7686
 3728SOL     OW 7906   1.153   0.082   6.057  0.2759  0.2950  0.0236
 3728SOL    HW1 7907   1.157   0.138   6.134  1.4869 -0.5729  0.6236
 3728SOL    HW2 7908   1.170  -0.006   6.090 -1.2403 -0.4088 -0.9476
 3729SOL     OW 7909   2.367   4.004   5.687  0.1913  0.0020  0.0897
 3729SOL    HW1 7910   2.295   4.065   5.676 -0.3543 -0.1787  2.1906
 3729SOL    HW2 7911   2.326   3.923   5.718  1.1865 -0.4430  0.3061
 3730SOL     OW 7912   1.398   0.070   7.401 -0.1423 -0.1042 -0.3863
 3730SOL    HW1 7913   1.399  -0.026   7.396  2.4968 -0.2136  0.5967
 3730SOL    HW2 7914   1.386   0.088   7.494  1.5260  0.4205 -0.2463
 3731SOL     OW 7915   1.800   4.164   7.415  0.3700  0.0672  0.3098
 3731SOL    HW1 7916   1.853   4.143   7.338  1.2905  0.4734  0.8119
 3731SOL    HW2 7917   1.725   4.106   7.409  0.6089 -0.1550 -0.7093
 3732SOL     OW 7918   1.642   4.279   7.689  0.1342  0.2359 -0.0504
 3732SOL    HW1 7919   1.652   4.366   7.650 -0.8512  1.5955  2.4952
 3732SOL    HW2 7920   1.711   4.273   7.754 -0.4973 -0.4224  0.5801
 3733SOL     OW 7921   0.579   3.929   7.678 -0.0595 -0.2325 -0.1750
 3733SOL    HW1 7922   0.632   3.999   7.716  1.4524 -1.0782 -0.6653
 3733SOL    HW2 7923   0.571   3.952   7.585 -0.7001 -0.0436 -0.0832
 3734SOL     OW 7924   0.243   2.831   6.148 -0.2640 -0.2879  0.0992
 3734SOL    HW1 7925   0.178   2.837   6.219  0.7372  0.5320  0.9788
 3734SOL    HW2 7926   0.321   2.796   6.191  0.1146 -0.5404 -0.7871
 3735SOL     OW 7927   2.199   4.144   7.693 -0.3777  0.1811 -0.2845
 3735SOL    HW1 7928   2.263   4.214   7.708 -1.2880  1.2080 -1.1081
 3735SOL    HW2 7929   2.122   4.188   7.660 -1.4231 -1.0899  0.3655
 3736SOL     OW 7930   1.361   4.123   7.440  0.4226  0.3756  0.6273
 3736SOL    HW1 7931   1.365   4.132   7.535  0.2342  0.6736  0.6075
 3736SOL    HW2 7932   1.298   4.053   7.424  2.4426 -1.6184  0.8111
 3737SOL     OW 7933   4.220   0.038   7.497  0.1413 -0.2840  0.3006
 3737SOL    HW1 7934   4.233   0.062   7.405 -1.2388 -1.4319 -0.2463
 3737SOL    HW2 7935   4.230   0.120   7.545 -1.1006  0.7712 -1.1110
 3738SOL     OW 7936   4.186   1.191   5.697 -0.0661 -0.0599 -0.5741
 3738SOL    HW1 7937   4.136   1.219   5.620 -0.4655  4.0604  0.9263
 3738SOL    HW2 7938   4.278   1.200   5.671 -0.1986  1.2813 -0.6455
 3739SOL     OW 7939   2.859   3.718   6.933  0.7712  0.1485  0.2808
 3739SOL    HW1 7940   2.823   3.799   6.896  0.5276  0.0270  0.2508
 3739SOL    HW2 7941   2.927   3.692   6.871  0.3792 -0.0424 -0.0783
 3740SOL     OW 7942   1.279   4.275   0.693 -0.7989 -0.3088  0.1380
 3740SOL    HW1 7943   1.200   4.330   0.702 -1.1100 -0.6045 -0.6707
 3740SOL    HW2 7944   1.248   4.186   0.712 -1.0565 -0.6693 -1.7584
 3741SOL     OW 7945   1.236   0.316   0.710  0.2930  0.1911  0.1168
 3741SOL    HW1 7946   1.258   0.409   0.703  0.7132 -0.0069 -1.5697
 3741SOL    HW2 7947   1.316   0.270   0.684  0.2572 -0.6732  1.4232
 3742SOL     OW 7948   1.655   1.774   1.487  0.2487 -0.3989 -0.2079
 3742SOL    HW1 7949   1.571   1.727   1.489  1.1030 -2.0084 -0.6663
 3742SOL    HW2 7950   1.631   1.864   1.464 -1.3793 -0.7559 -0.0496
 3743SOL     OW 7951   3.731   1.081   1.020 -0.1276  0.2306 -0.3944
 3743SOL    HW1 7952   3.711   1.174   1.008 -0.4121  0.2069 -0.1317
 3743SOL    HW2 7953   3.684   1.057   1.100  1.4242  0.3025  0.5679
 3744SOL     OW 7954   2.317   0.273   1.448 -0.1930  0.3322 -0.1601
 3744SOL    HW1 7955   2.403   0.304   1.477 -0.1471  1.7885 -1.6750
 3744SOL    HW2 7956   2.336   0.210   1.379 -0.3522 -0.5280  0.5564
 3745SOL     OW 7957   2.389   1.114   2.743 -0.2152 -0.3830  0.4335
 3745SOL    HW1 7958   2.339   1.194   2.758 -2.3574 -1.8134  1.3238
 3745SOL    HW2 7959   2.461   1.142   2.686 -1.4257  1.9701 -0.0859
 3746SOL     OW 7960   2.192   1.282   0.677  0.8628 -0.1963  0.1993
 3746SOL    HW1 7961   2.151   1.353   0.725  0.7274 -0.7077  0.8632
 3746SOL    HW2 7962   2.121   1.242   0.627  0.8873 -0.0390  0.0360
 3747SOL     OW 7963   1.369   1.630   1.169 -0.0024 -0.1091 -0.1117
 3747SOL    HW1 7964   1.294   1.592   1.215  0.2084  0.2101  0.5218
 3747SOL    HW2 7965   1.385   1.713   1.215  1.1431 -0.4774  0.1907
 3748SOL     OW 7966   3.652   0.770   2.577  0.0984 -0.5859 -0.0941
 3748SOL    HW1 7967   3.723   0.824   2.542  0.7744 -0.4038  1.4659
 3748SOL    HW2 7968   3.596   0.752   2.502  2.1198 -1.2556 -1.5481
 3749SOL     OW 7969   0.347   1.452   2.480  0.4321  0.4445 -0.0924
 3749SOL    HW1 7970   0.351   1.361   2.509 -1.3730  0.8333  1.6175
 3749SOL    HW2 7971   0.272   1.456   2.421  0.9894  0.6857 -0.8001
 3750SOL     OW 7972   2.538   1.630   0.682  0.2768 -0.0523  0.1405
 3750SOL    HW1 7973   2.472   1.617   0.750  0.3501  0.7401  0.3773
 3750SOL    HW2 7974   2.553   1.543   0.645  0.5441 -0.5712  1.4292
 3751SOL     OW 7975   1.545   1.132   0.686 -0.2879 -0.0696  0.6006
 3751SOL    HW1 7976   1.451   1.137   0.671 -0.3324 -1.1154  0.4367
 3751SOL    HW2 7977   1.570   1.220   0.715 -0.7878  1.1308 -2.2959
 3752SOL     OW 7978   2.000   0.771   0.690 -0.5458  0.2613 -0.0578
 3752SOL    HW1 7979   1.977   0.681   0.671 -0.7224  0.5344 -1.1695
 3752SOL    HW2 7980   1.920   0.821   0.675 -0.4290  0.6201  0.4693
 3753SOL     OW 7981   2.235   1.357   1.105  0.1370 -0.1174  0.3670
 3753SOL    HW1 7982   2.186   1.373   1.025  0.1435  1.6218  0.6868
 3753SOL    HW2 7983   2.322   1.330   1.075  0.4629  1.5164 -0.2562
 3754SOL     OW 7984   1.841   0.232   0.654 -0.3806 -0.4150 -0.1766
 3754SOL    HW1 7985   1.784   0.262   0.725 -0.8868 -0.2909 -0.6233
 3754SOL    HW2 7986   1.844   0.306   0.593  0.4115 -0.3560 -0.0701
 3755SOL     OW 7987   3.104   0.588   1.383 -0.2970 -0.0550 -0.0623
 3755SOL    HW1 7988   3.011   0.587   1.404 -0.0425 -0.5388  1.1295
 3755SOL    HW2 7989   3.120   0.675   1.347 -1.1536  0.1146 -0.0523
 3756SOL     OW 7990   0.366   2.030   2.325 -0.8161  0.1602  0.2659
 3756SOL    HW1 7991   0.371   2.015   2.230  0.0516  2.1759 -0.0749
 3756SOL    HW2 7992   0.435   1.975   2.361 -2.1465 -1.8130 -0.0477
 3757SOL     OW 7993   1.990   1.098   0.664  0.2568  0.0183 -0.4584
 3757SOL    HW1 7994   2.056   1.029   0.664  0.2943 -0.0058  1.4563
 3757SOL    HW2 7995   1.907   1.052   0.652  0.1725 -0.5632  1.8305
 3758SOL     OW 7996   0.853   3.085   1.841  0.3687  0.6281  0.0236
 3758SOL    HW1 7997   0.915   3.150   1.809  1.8795 -0.2216  1.0703
 3758SOL    HW2 7998   0.788   3.077   1.771  2.1317  0.6461 -1.6971
 3759SOL     OW 7999   2.963   1.293   2.431  0.6361 -0.0978 -0.6516
 3759SOL    HW1 8000   2.929   1.261   2.348  0.1031 -1.0802 -0.0685
 3759SOL    HW2 8001   2.904   1.365   2.455  0.2531 -0.4011 -0.6804
 3760SOL     OW 8002   0.283   0.118   2.262 -0.6328 -1.1217 -0.0733
 3760SOL    HW1 8003   0.227   0.122   2.339 -0.2713 -0.6583  0.1703
 3760SOL    HW2 8004   0.262   0.034   2.221 -2.7392 -0.2588 -0.9176
 3761SOL     OW 8005   4.301   2.630   1.277  0.7419 -0.1429  0.0429
 3761SOL    HW1 8006   4.282   2.578   1.355 -2.4451  1.0604  0.2158
 3761SOL    HW2 8007   4.358   2.574   1.224 -0.5395 -2.8003  1.2799
 3762SOL     OW 8008   1.812   0.570   0.646 -0.2761  0.3252 -0.4151
 3762SOL    HW1 8009   1.755   0.495   0.661  1.0635 -0.4074  1.5647
 3762SOL    HW2 8010   1.790   0.632   0.715  0.7965  0.3280 -0.0458
 3763SOL     OW 8011   2.545   1.020   1.141 -0.5456 -0.2550  0.1229
 3763SOL    HW1 8012   2.457   0.986   1.157 -0.3960 -0.9480 -0.4652
 3763SOL    HW2 8013   2.595   0.944   1.113 -0.0157  0.3210 -0.5314
 3764SOL     OW 8014   2.950   1.519   1.612  0.0706  0.2113  0.7797
 3764SOL    HW1 8015   3.007   1.441   1.608  0.0520  0.0779  2.4362
 3764SOL    HW2 8016   2.869   1.491   1.569  0.0802 -0.6782  1.3072
 3765SOL     OW 8017   2.752   0.048   0.949 -0.0800  0.1512  0.0425
 3765SOL    HW1 8018   2.760   0.143   0.958  0.2005  0.1949 -0.6015
 3765SOL    HW2 8019   2.674   0.025   1.000  0.2833  0.6254  0.8292
 3766SOL     OW 8020   2.842   0.910   0.842  0.7536  0.0979 -0.1162
 3766SOL    HW1 8021   2.849   0.870   0.756  1.1734 -0.2108  0.0578
 3766SOL    HW2 8022   2.794   0.992   0.827 -1.8705 -1.3459 -0.1872
 3767SOL     OW 8023   1.672   0.227   3.113  0.6523 -0.0921 -0.2896
 3767SOL    HW1 8024   1.693   0.308   3.067 -0.0896  0.3714  0.1717
 3767SOL    HW2 8025   1.685   0.158   3.048 -0.3808  0.5490 -1.2090
 3768SOL     OW 8026   1.954   1.501   3.232 -0.0738 -0.1553  0.3943
 3768SOL    HW1 8027   1.879   1.458   3.272  0.4381 -0.0325  1.5374
 3768SOL    HW2 8028   1.935   1.595   3.238 -1.4642 -0.1225 -2.6358
 3769SOL     OW 8029   2.312   1.965   0.975 -0.5302  0.5654  0.1429
 3769SOL    HW1 8030   2.345   1.993   0.889 -0.8060  0.5223  0.0213
 3769SOL    HW2 8031   2.387   1.923   1.017 -0.8296 -0.9310 -0.7428
 3770SOL     OW 8032   1.943   1.115   0.940 -0.2342  0.1633  0.0425
 3770SOL    HW1 8033   1.905   1.203   0.937  0.3986  0.4761  0.7434
 3770SOL    HW2 8034   1.986   1.105   0.855 -1.3889  0.0209 -0.5386
 3771SOL     OW 8035   3.221   0.848   3.679  0.2338 -0.1649 -0.1297
 3771SOL    HW1 8036   3.229   0.752   3.675  0.8964 -0.1310  0.2836
 3771SOL    HW2 8037   3.216   0.868   3.772  1.5229  0.2976 -0.1390
 3772SOL     OW 8038   3.535   3.657   1.280 -0.1190  0.3063  0.7558
 3772SOL    HW1 8039   3.477   3.656   1.203 -0.2818  0.8508  0.8712
 3772SOL    HW2 8040   3.616   3.617   1.249 -0.0128  0.9596  0.1574
 3773SOL     OW 8041   3.280   1.260   2.598 -0.1978 -0.4141  0.0379
 3773SOL    HW1 8042   3.212   1.193   2.596 -0.3458 -0.2786  0.4926
 3773SOL    HW2 8043   3.362   1.212   2.607 -0.0705 -0.6834 -2.1095
 3774SOL     OW 8044   2.056   0.859   0.979  0.1386 -0.6276 -0.4924
 3774SOL    HW1 8045   2.030   0.952   0.978 -0.2011 -0.7112  0.1573
 3774SOL    HW2 8046   2.061   0.836   0.886  0.3431  0.0705 -0.6675
 3775SOL     OW 8047   2.193   2.659   1.735  0.1065  0.0921  0.1008
 3775SOL    HW1 8048   2.221   2.749   1.719  0.8568 -0.2244 -0.4266
 3775SOL    HW2 8049   2.124   2.667   1.801 -1.7398  1.3069 -1.8265
 3776SOL     OW 8050   3.049   1.844   0.670 -0.0278  0.2334 -0.0224
 3776SOL    HW1 8051   3.090   1.773   0.720 -1.9045 -2.0282 -1.4744
 3776SOL    HW2 8052   3.039   1.808   0.581 -1.3014  2.2163 -0.7550
 3777SOL     OW 8053   2.224   0.912   0.671  0.1416  0.3838 -0.0561
 3777SOL    HW1 8054   2.267   0.915   0.756 -1.6358  0.3212  0.9066
 3777SOL    HW2 8055   2.196   0.820   0.661 -1.4067  0.7841  0.2620
 3778SOL     OW 8056   2.438   2.093   0.742  0.0831  0.1895 -0.2988
 3778SOL    HW1 8057   2.487   2.022   0.782  0.0049  1.0376  1.4130
 3778SOL    HW2 8058   2.465   2.094   0.651 -0.3388 -2.3758 -0.5089
 3779SOL     OW 8059   1.263   1.112   0.645  0.5034 -0.7280  0.4507
 3779SOL    HW1 8060   1.211   1.191   0.657  1.0141 -0.5581  1.8002
 3779SOL    HW2 8061   1.205   1.051   0.599  0.5914  0.8842 -1.9784
 3780SOL     OW 8062   3.616   0.149   1.598  0.1368  0.6599  0.0793
 3780SOL    HW1 8063   3.527   0.184   1.590  0.3314  1.1436 -0.0443
 3780SOL    HW2 8064   3.606   0.069   1.649 -0.3693  0.7166  0.0761
 3781SOL     OW 8065   2.670   0.118   1.452 -0.2053  0.1714  0.0276
 3781SOL    HW1 8066   2.658   0.034   1.496 -2.5542 -0.5721 -1.8138
 3781SOL    HW2 8067   2.647   0.100   1.360  1.2217  2.3811 -0.8310
 3782SOL     OW 8068   3.970   4.268   1.631  0.3398 -0.0318  0.2317
 3782SOL    HW1 8069   3.956   4.253   1.537  0.0763 -1.1467  0.4327
 3782SOL    HW2 8070   4.056   4.229   1.648  0.7193  0.8301  0.3144
 3783SOL     OW 8071   2.934   1.857   2.772  0.1546 -0.0114  0.5102
 3783SOL    HW1 8072   2.947   1.950   2.751  0.6111 -0.0332  0.6898
 3783SOL    HW2 8073   2.840   1.849   2.787 -0.1118  0.1290 -0.9344
 3784SOL     OW 8074   0.768   0.562   2.701  0.2989  0.6816 -0.1828
 3784SOL    HW1 8075   0.834   0.514   2.752 -0.3409  0.0038  0.0219
 3784SOL    HW2 8076   0.788   0.541   2.610  1.1431  1.5043 -0.2036
 3785SOL     OW 8077   1.928   0.771   2.082  0.2238  0.4652 -0.5517
 3785SOL    HW1 8078   1.984   0.734   2.014 -0.6231 -0.2883 -0.8650
 3785SOL    HW2 8079   1.844   0.787   2.037 -0.2173  0.3432  0.2164
 3786SOL     OW 8080   3.301   0.400   1.359  0.2076 -0.1285 -0.1034
 3786SOL    HW1 8081   3.273   0.312   1.383 -1.6155  0.5585  0.4497
 3786SOL    HW2 8082   3.229   0.457   1.387  2.1234  1.7827  1.3050
 3787SOL     OW 8083   1.334   1.320   2.610  0.1691  0.4897  0.5145
 3787SOL    HW1 8084   1.364   1.360   2.692  0.1393  0.0378  0.7509
 3787SOL    HW2 8085   1.407   1.265   2.583  0.2545  0.7864  0.1289
 3788SOL     OW 8086   0.753   1.164   1.452  0.5339  0.6320 -0.4714
 3788SOL    HW1 8087   0.785   1.075   1.468 -0.3717  0.3189 -0.2928
 3788SOL    HW2 8088   0.777   1.213   1.530 -0.9515 -0.0530  0.4812
 3789SOL     OW 8089   2.394   3.926   1.477  0.6555 -0.0364 -0.0719
 3789SOL    HW1 8090   2.400   3.975   1.395  2.0270 -0.4906 -0.2650
 3789SOL    HW2 8091   2.308   3.949   1.513  0.2156  0.4924 -1.4217
 3790SOL     OW 8092   2.146   0.092   1.805 -0.0111 -0.0568  0.0023
 3790SOL    HW1 8093   2.086   0.086   1.731 -2.3364  0.9091  1.6803
 3790SOL    HW2 8094   2.139   0.007   1.848  0.9618 -0.4412 -0.5596
 3791SOL     OW 8095   0.866   3.440   2.651  0.2644  0.5165 -0.1801
 3791SOL    HW1 8096   0.938   3.417   2.711  0.6777 -1.0685 -1.2378
 3791SOL    HW2 8097   0.787   3.428   2.704  0.7206  1.8131  0.8540
 3792SOL     OW 8098   3.394   0.311   2.244 -0.0810 -0.1901  0.8168
 3792SOL    HW1 8099   3.359   0.347   2.326 -1.2372  0.2681  0.1350
 3792SOL    HW2 8100   3.429   0.225   2.269  0.5590  0.3864  1.9919
 3793SOL     OW 8101   3.052   0.254   2.002 -0.2722 -0.2035  0.2945
 3793SOL    HW1 8102   3.142   0.253   1.969 -0.1716 -0.2490  0.5714
 3793SOL    HW2 8103   3.048   0.332   2.058 -0.5250  0.0340 -0.0460
 3794SOL     OW 8104   3.899   1.503   0.702  0.1748 -0.0053  0.1818
 3794SOL    HW1 8105   3.915   1.542   0.788  0.0480  0.4340  0.0097
 3794SOL    HW2 8106   3.835   1.561   0.661  0.3181 -0.1502 -0.2544
 3795SOL     OW 8107   3.225   2.277   2.768 -0.5187  0.1700 -0.1141
 3795SOL    HW1 8108   3.219   2.305   2.677  1.8717  1.3147  0.0039
 3795SOL    HW2 8109   3.275   2.196   2.766 -0.8706 -0.0563  0.1392
 3796SOL     OW 8110   3.945   1.215   1.257 -0.2142  0.4388 -0.2305
 3796SOL    HW1 8111   3.858   1.177   1.250  0.5051 -2.1832  2.7277
 3796SOL    HW2 8112   3.931   1.309   1.248 -3.2501  0.0600 -0.4315
 3797SOL     OW 8113   2.057   0.192   1.512  0.0243 -0.2965 -0.2956
 3797SOL    HW1 8114   2.146   0.226   1.503 -0.0386  0.4500  1.4919
 3797SOL    HW2 8115   2.058   0.109   1.464  1.7651 -0.4528 -0.0537
 3798SOL     OW 8116   2.343   1.013   1.478 -0.2953 -0.1350  0.2080
 3798SOL    HW1 8117   2.315   1.053   1.396  2.0241  0.8959 -0.1746
 3798SOL    HW2 8118   2.312   1.072   1.546  0.5903  0.8043 -0.1762
 3799SOL     OW 8119   3.860   1.448   1.552 -0.0094  0.3272  0.4365
 3799SOL    HW1 8120   3.866   1.363   1.508  1.2944  1.1839 -1.1911
 3799SOL    HW2 8121   3.802   1.433   1.626 -0.1049 -1.8877 -0.0091
 3800SOL     OW 8122   3.337   0.493   1.745 -0.3457  0.1670  0.2798
 3800SOL    HW1 8123   3.355   0.427   1.812 -1.0931  2.1585  2.5368
 3800SOL    HW2 8124   3.352   0.577   1.788 -0.7206  1.5426 -2.0976
 3801SOL     OW 8125   3.427   1.559   1.688  0.4646 -0.1883 -0.1642
 3801SOL    HW1 8126   3.371   1.523   1.757 -1.3273 -0.3133 -1.5859
 3801SOL    HW2 8127   3.487   1.488   1.666  1.5823  0.1056  1.7244
 3802SOL     OW 8128   2.483   1.344   2.934  0.0348 -0.7033 -0.0819
 3802SOL    HW1 8129   2.511   1.269   2.883 -0.2608 -0.7706 -0.1447
 3802SOL    HW2 8130   2.394   1.362   2.904  0.0403 -0.4389  0.0579
 3803SOL     OW 8131   0.702   3.899   4.607  0.0353 -0.2891 -0.1959
 3803SOL    HW1 8132   0.633   3.903   4.673 -0.4790 -3.3031 -0.4147
 3803SOL    HW2 8133   0.659   3.865   4.529  1.5144 -1.0871 -0.6990
 3804SOL     OW 8134   3.429   1.037   2.395  0.1608  0.0559  0.5060
 3804SOL    HW1 8135   3.365   1.064   2.461  0.5613  0.8038  0.6059
 3804SOL    HW2 8136   3.388   0.962   2.351 -1.8808  1.9301 -1.0554
 3805SOL     OW 8137   2.317   4.160   0.896 -0.4583  0.0515 -0.1351
 3805SOL    HW1 8138   2.229   4.130   0.871 -0.0053 -0.1547 -1.5363
 3805SOL    HW2 8139   2.376   4.117   0.834  0.6754 -0.0302  0.9633
 3806SOL     OW 8140   1.178   4.216   2.104 -0.3381  0.3031  0.0151
 3806SOL    HW1 8141   1.235   4.174   2.168  1.2652  2.6308  0.2281
 3806SOL    HW2 8142   1.145   4.294   2.148  0.9782  2.0972 -1.9628
 3807SOL     OW 8143   1.263   0.312   1.239 -0.2449  0.3429  0.6346
 3807SOL    HW1 8144   1.180   0.343   1.203 -0.7334 -1.1862  0.3709
 3807SOL    HW2 8145   1.309   0.274   1.164 -0.1980 -0.6532  1.1548
 3808SOL     OW 8146   3.239   0.026   1.770  0.0913  0.5073  0.4435
 3808SOL    HW1 8147   3.310  -0.037   1.758 -0.3594  0.3308 -1.9515
 3808SOL    HW2 8148   3.160  -0.022   1.744 -0.3829  1.7649 -0.5392
 3809SOL     OW 8149   0.977   1.555   2.049 -0.3796 -0.2404  0.2970
 3809SOL    HW1 8150   1.038   1.495   2.006  0.3170  1.0938 -0.6579
 3809SOL    HW2 8151   0.960   1.515   2.134  0.7215 -1.3567  0.0257
 3810SOL     OW 8152   3.513   1.116   2.695  0.1859  0.2565  0.4927
 3810SOL    HW1 8153   3.570   1.087   2.766  1.5170  0.4637 -0.4535
 3810SOL    HW2 8154   3.573   1.134   2.622 -0.6905  3.6982  0.4726
 3811SOL     OW 8155   4.267   0.355   3.301  0.2844  0.0210  0.1262
 3811SOL    HW1 8156   4.327   0.283   3.282 -1.6213 -1.5495 -0.2504
 3811SOL    HW2 8157   4.202   0.352   3.231 -0.3649  1.5611  0.6030
 3812SOL     OW 8158   0.846   1.076   3.526  0.6189 -0.1744  0.3112
 3812SOL    HW1 8159   0.805   1.004   3.574  0.1586 -0.6924 -0.8364
 3812SOL    HW2 8160   0.922   1.100   3.580 -1.1772  0.8826  2.5382
 3813SOL     OW 8161   2.471   1.471   1.281 -0.2691  0.0200  0.0210
 3813SOL    HW1 8162   2.526   1.533   1.233  1.5810 -0.5124  1.3533
 3813SOL    HW2 8163   2.388   1.469   1.232  0.9040  0.7814 -2.1139
 3814SOL     OW 8164   3.615   2.861   1.675  0.0983 -0.0548  0.9056
 3814SOL    HW1 8165   3.700   2.883   1.638  0.8023 -1.7103  1.4767
 3814SOL    HW2 8166   3.559   2.844   1.599  0.9666 -1.3966  0.5420
 3815SOL     OW 8167   3.816   1.258   1.729 -0.0497  0.1436 -0.2531
 3815SOL    HW1 8168   3.870   1.255   1.808  1.5772  1.4086 -1.2621
 3815SOL    HW2 8169   3.867   1.211   1.663 -0.8920  0.0369 -0.8513
 3816SOL     OW 8170   1.838   0.569   1.377  0.0879  0.2440  0.2189
 3816SOL    HW1 8171   1.826   0.496   1.439 -0.8129  0.4367  0.2835
 3816SOL    HW2 8172   1.897   0.629   1.422 -2.7446  1.7710  2.1763
 3817SOL     OW 8173   2.850   0.174   1.693  0.0037  0.7289 -0.6639
 3817SOL    HW1 8174   2.884   0.252   1.738 -0.8208 -0.0142  1.4044
 3817SOL    HW2 8175   2.758   0.194   1.676 -0.1767  0.2774 -0.2497
 3818SOL     OW 8176   1.351   0.702   2.473  0.0445  0.2563 -0.1179
 3818SOL    HW1 8177   1.437   0.682   2.510 -1.3687  0.1970  3.5913
 3818SOL    HW2 8178   1.315   0.616   2.450  1.0923  0.3217 -2.2256
 3819SOL     OW 8179   3.026   1.206   1.874  0.3703 -0.6827  0.3770
 3819SOL    HW1 8180   2.975   1.284   1.899  0.5744 -0.3834 -0.1207
 3819SOL    HW2 8181   2.961   1.145   1.838  0.4590  0.1070 -1.2432
 3820SOL     OW 8182   3.944   2.925   1.312  0.0960 -0.1372 -0.8891
 3820SOL    HW1 8183   3.977   3.015   1.318  0.9856 -0.5214  0.6144
 3820SOL    HW2 8184   4.012   2.878   1.264 -1.2686  0.3382 -3.4572
 3821SOL     OW 8185   2.023   0.014   0.675  0.5091  0.1771 -0.2203
 3821SOL    HW1 8186   2.118   0.026   0.679  0.4987  0.4723 -0.8833
 3821SOL    HW2 8187   1.989   0.099   0.647  0.0780 -0.0463 -0.3768
 3822SOL     OW 8188   2.913   3.069   0.982  0.3364  0.2189 -0.6476
 3822SOL    HW1 8189   2.845   3.044   1.045  0.9315  0.1513 -0.0292
 3822SOL    HW2 8190   2.994   3.069   1.032  0.7333  0.7770 -1.2667
 3823SOL     OW 8191   0.012   2.010   1.178  0.0205  0.1553 -0.3090
 3823SOL    HW1 8192   0.082   2.067   1.210 -0.2269 -0.3893  1.2889
 3823SOL    HW2 8193  -0.023   2.056   1.101  1.2224  1.0877 -0.3322
 3824SOL     OW 8194   3.248   0.534   0.696  0.0783 -0.1381 -0.2746
 3824SOL    HW1 8195   3.322   0.474   0.687  0.1584  0.0880 -1.2054
 3824SOL    HW2 8196   3.178   0.495   0.644 -0.2571 -0.0207  0.0816
 3825SOL     OW 8197   2.609   3.242   1.106 -0.0987  0.3687 -0.1586
 3825SOL    HW1 8198   2.556   3.234   1.186  0.0694  0.1233 -0.0714
 3825SOL    HW2 8199   2.554   3.206   1.037  0.4767 -1.1516  0.1552
 3826SOL     OW 8200   2.419   0.269   2.334 -0.1577  0.0644 -0.1882
 3826SOL    HW1 8201   2.340   0.248   2.283  0.6249  1.4492 -2.0830
 3826SOL    HW2 8202   2.473   0.190   2.329  0.2590  0.4277 -2.2898
 3827SOL     OW 8203   3.868   3.848   2.857  0.4933  0.1430  0.0745
 3827SOL    HW1 8204   3.794   3.792   2.837  1.5234 -1.8045  1.3629
 3827SOL    HW2 8205   3.875   3.906   2.782 -1.8810 -0.0626 -0.3895
 3828SOL     OW 8206   2.989   0.635   0.905  0.2781  0.2408 -0.1837
 3828SOL    HW1 8207   2.970   0.724   0.875  0.1862  0.2251 -0.1711
 3828SOL    HW2 8208   3.070   0.643   0.956 -0.6479  0.6013  1.2766
 3829SOL     OW 8209   3.363   0.382   1.094  0.1077  0.3142 -0.0253
 3829SOL    HW1 8210   3.323   0.382   1.181 -1.7854  0.4472 -0.8364
 3829SOL    HW2 8211   3.457   0.390   1.110 -0.3045  1.9836  1.9539
 3830SOL     OW 8212   2.062   4.172   2.214 -0.0026  0.0805  0.1375
 3830SOL    HW1 8213   2.021   4.139   2.294 -1.4403 -1.1942 -1.0674
 3830SOL    HW2 8214   2.154   4.146   2.222  0.1811  1.1641  1.9567
 3831SOL     OW 8215   3.990   0.703   2.256  0.4079 -0.0239 -0.1357
 3831SOL    HW1 8216   3.988   0.608   2.249 -0.2209  0.0338 -0.9229
 3831SOL    HW2 8217   3.974   0.722   2.348 -2.0844 -0.6333 -0.3795
 3832SOL     OW 8218   2.301   0.207   2.080 -0.1132 -0.1919 -0.6637
 3832SOL    HW1 8219   2.251   0.211   1.999  1.6978  1.0457 -1.7879
 3832SOL    HW2 8220   2.378   0.263   2.064 -0.8670  2.1338  2.7242
 3833SOL     OW 8221   4.047   2.551   0.716 -0.2156 -0.1553 -0.0592
 3833SOL    HW1 8222   4.059   2.615   0.786  0.6023  0.3212 -0.6236
 3833SOL    HW2 8223   4.131   2.504   0.711  0.1265  0.5351 -1.4145
 3834SOL     OW 8224   2.082   0.672   1.486  0.7993  0.2905  0.7621
 3834SOL    HW1 8225   2.160   0.676   1.431  1.0045 -0.8827  0.9398
 3834SOL    HW2 8226   2.102   0.605   1.552  0.1332  0.8840  1.5912
 3835SOL     OW 8227   1.185   1.070   2.108 -0.4575  0.3464 -0.1723
 3835SOL    HW1 8228   1.136   1.060   2.190  0.9832 -1.0670  0.5617
 3835SOL    HW2 8229   1.140   1.141   2.062 -2.0093  0.3893  1.3119
 3836SOL     OW 8230   1.345   0.929   2.605 -0.0286  0.4525  0.2373
 3836SOL    HW1 8231   1.308   0.843   2.589  0.5722  0.1518  0.4185
 3836SOL    HW2 8232   1.393   0.951   2.525 -0.0774  0.5666  0.2382
 3837SOL     OW 8233   3.713   4.012   0.922  0.0398 -0.7826  0.0251
 3837SOL    HW1 8234   3.763   4.002   1.003 -0.3218  1.6973  0.6271
 3837SOL    HW2 8235   3.768   3.971   0.854  1.5122 -0.6880  1.1151
 3838SOL     OW 8236   3.978   1.944   1.175  0.6522 -0.3969 -0.5597
 3838SOL    HW1 8237   3.940   1.927   1.261  1.7602  0.1450  0.0644
 3838SOL    HW2 8238   4.063   1.985   1.194 -0.2437  2.3249 -1.9334
 3839SOL     OW 8239   2.429   1.110   0.667 -0.1795 -0.2107 -0.5554
 3839SOL    HW1 8240   2.346   1.155   0.655  0.2920  0.3140 -1.9630
 3839SOL    HW2 8241   2.414   1.022   0.633 -0.9987 -1.1018  1.8871
 3840SOL     OW 8242   4.254   1.059   0.926 -0.2402 -0.1423 -0.0940
 3840SOL    HW1 8243   4.204   1.074   1.006 -0.1418  0.3226 -0.1142
 3840SOL    HW2 8244   4.316   0.990   0.948 -0.6973 -0.5271  0.0160
 3841SOL     OW 8245   2.899   1.224   2.177  0.2749 -0.2713  0.3091
 3841SOL    HW1 8246   2.815   1.218   2.132 -0.5334 -0.4280  1.7722
 3841SOL    HW2 8247   2.935   1.135   2.174  0.7170 -0.0697 -0.8806
 3842SOL     OW 8248   4.012   0.808   1.052 -0.4610  0.0753 -0.1401
 3842SOL    HW1 8249   4.042   0.895   1.077  1.2458 -0.1736 -1.1532
 3842SOL    HW2 8250   3.981   0.768   1.133 -2.1153  1.9082  0.1971
 3843SOL     OW 8251   1.249   0.422   2.459 -0.1409 -0.1392 -0.2641
 3843SOL    HW1 8252   1.306   0.384   2.391 -0.1893  0.2472 -0.5226
 3843SOL    HW2 8253   1.276   0.379   2.540  0.9981  0.5536 -0.2656
 3844SOL     OW 8254   2.680   0.801   1.059 -1.1093 -0.1677 -0.2101
 3844SOL    HW1 8255   2.735   0.836   0.988 -2.1474  0.3660 -0.7778
 3844SOL    HW2 8256   2.696   0.707   1.057  0.3086  0.0434  0.1016
 3845SOL     OW 8257   0.952   0.400   2.794 -0.3904 -0.0214 -0.3076
 3845SOL    HW1 8258   1.036   0.356   2.784 -1.1227 -1.2061 -1.4799
 3845SOL    HW2 8259   0.925   0.381   2.884  0.0676 -0.5573 -0.2805
 3846SOL     OW 8260   3.569   1.311   1.616  0.6146 -0.4073  0.3583
 3846SOL    HW1 8261   3.637   1.291   1.680 -0.3593 -1.0102  1.2341
 3846SOL    HW2 8262   3.524   1.228   1.602  0.2630 -0.0842 -0.4562
 3847SOL     OW 8263   3.526   1.012   3.445 -0.5221 -1.1263 -0.0912
 3847SOL    HW1 8264   3.559   0.942   3.501  1.1926 -1.2744 -1.2399
 3847SOL    HW2 8265   3.593   1.024   3.378 -0.2121  2.2774  0.6032
 3848SOL     OW 8266   3.229   4.309   2.346 -0.5100  0.3001 -0.4890
 3848SOL    HW1 8267   3.159   4.370   2.322 -0.0501  1.3169  0.6169
 3848SOL    HW2 8268   3.204   4.279   2.434  0.2500  0.4132 -0.2260
 3849SOL     OW 8269   3.042   1.110   3.776 -0.4570  0.3858  0.0119
 3849SOL    HW1 8270   3.023   1.078   3.688  0.4370  1.3785 -0.5679
 3849SOL    HW2 8271   3.072   1.200   3.763 -0.7438  0.7052  1.3802
 3850SOL     OW 8272   2.044   0.877   4.433  0.2655  0.4317  1.0688
 3850SOL    HW1 8273   2.056   0.786   4.461  0.3741  0.5582  1.4374
 3850SOL    HW2 8274   2.111   0.889   4.365 -1.5850 -0.6199 -1.0831
 3851SOL     OW 8275   2.591   0.163   3.025  0.2027 -0.0744 -0.4417
 3851SOL    HW1 8276   2.669   0.115   3.052  0.2723 -0.5778 -1.5041
 3851SOL    HW2 8277   2.521   0.097   3.025 -0.6676  0.7116  2.2176
 3852SOL     OW 8278   1.469   0.919   2.361 -0.2841 -1.0531 -0.0243
 3852SOL    HW1 8279   1.455   0.966   2.279  0.1689 -2.0642 -0.7081
 3852SOL    HW2 8280   1.451   0.827   2.340  1.9830 -1.6768  0.3835
 3853SOL     OW 8281   2.695   0.270   2.795  0.1088 -0.6040  0.0739
 3853SOL    HW1 8282   2.732   0.190   2.759  0.5881 -0.7025  0.7735
 3853SOL    HW2 8283   2.658   0.245   2.879  0.0227 -0.1486  0.1779
 3854SOL     OW 8284   3.528   2.762   2.253  0.5296 -0.1338 -0.2470
 3854SOL    HW1 8285   3.452   2.781   2.199  0.8285  0.1318 -0.5780
 3854SOL    HW2 8286   3.506   2.799   2.339  0.6270  0.7005 -0.5683
 3855SOL     OW 8287   1.939   1.034   1.248 -0.0740  0.0833 -0.4767
 3855SOL    HW1 8288   1.886   1.112   1.230  1.9354  1.1295 -2.3098
 3855SOL    HW2 8289   1.939   0.985   1.166  0.6028 -0.6502 -0.0572
 3856SOL     OW 8290   1.109   0.452   3.876  0.0898 -0.3646 -0.2881
 3856SOL    HW1 8291   1.168   0.526   3.893  0.0394 -0.1887 -0.8669
 3856SOL    HW2 8292   1.125   0.392   3.949  1.4143 -0.5895 -0.7295
 3857SOL     OW 8293   2.842   0.547   2.378 -0.1356 -0.0977 -0.0794
 3857SOL    HW1 8294   2.752   0.553   2.347 -0.5478  0.8555  1.2353
 3857SOL    HW2 8295   2.836   0.502   2.462  0.5306  0.5156  0.3107
 3858SOL     OW 8296   2.624   2.043   3.107  0.0580  0.1766  0.8100
 3858SOL    HW1 8297   2.713   2.078   3.099 -0.0145 -0.0863 -3.3428
 3858SOL    HW2 8298   2.622   1.969   3.046 -2.8781 -0.2097  1.2364
 3859SOL     OW 8299   4.195   1.187   3.803  0.3268  0.0506 -0.2107
 3859SOL    HW1 8300   4.210   1.196   3.709  0.6716 -0.4561 -0.2044
 3859SOL    HW2 8301   4.193   1.092   3.818 -1.4343  0.0756  0.0123
 3860SOL     OW 8302   0.279   3.230   3.813 -0.0470  0.2137 -0.0396
 3860SOL    HW1 8303   0.203   3.176   3.831 -0.2520  1.2517  2.7011
 3860SOL    HW2 8304   0.354   3.172   3.826 -0.3110  0.0111  0.5969
 3861SOL     OW 8305   2.198   3.928   1.898  0.6515  0.3123  0.2110
 3861SOL    HW1 8306   2.267   3.901   1.959  1.8823 -0.0278 -1.2740
 3861SOL    HW2 8307   2.134   3.856   1.900  0.0464  0.8462  1.9578
 3862SOL     OW 8308   3.951   1.140   1.528  0.2731  0.7279 -0.1079
 3862SOL    HW1 8309   3.900   1.060   1.537 -1.0912  1.3907 -1.4694
 3862SOL    HW2 8310   4.002   1.127   1.448 -0.4355  1.4320 -0.6951
 3863SOL     OW 8311   2.919   0.691   1.957 -0.4430  0.0707  0.3263
 3863SOL    HW1 8312   2.891   0.697   1.866 -1.2694  0.2586  0.5893
 3863SOL    HW2 8313   2.906   0.780   1.992  0.7228  0.2360  0.3948
 3864SOL     OW 8314   1.552   0.285   3.382 -0.1595  0.0518 -0.0580
 3864SOL    HW1 8315   1.561   0.202   3.429  2.3362  0.6715  0.7013
 3864SOL    HW2 8316   1.564   0.261   3.290 -1.7811 -0.6909 -0.1275
 3865SOL     OW 8317   2.240   1.621   1.177 -0.4298 -0.0223  0.2580
 3865SOL    HW1 8318   2.203   1.671   1.249 -1.6524 -1.0454  0.3785
 3865SOL    HW2 8319   2.170   1.560   1.152  0.3768 -0.4602 -1.0389
 3866SOL     OW 8320   4.294   1.594   4.390 -0.2482  0.0996  0.1010
 3866SOL    HW1 8321   4.322   1.574   4.301  0.5369  1.2502  0.0622
 3866SOL    HW2 8322   4.293   1.690   4.393  0.7352  0.0885  1.6229
 3867SOL     OW 8323   2.805   4.056   1.809  0.1751  0.0332  0.1808
 3867SOL    HW1 8324   2.800   3.961   1.806  0.5973 -0.0008  0.3876
 3867SOL    HW2 8325   2.752   4.081   1.885 -1.4040  0.1007 -0.9039
 3868SOL     OW 8326   2.622   0.671   3.771  0.0405  0.1964  0.0125
 3868SOL    HW1 8327   2.631   0.630   3.685 -4.2280 -1.4863  0.1038
 3868SOL    HW2 8328   2.564   0.746   3.756  1.5228  1.6432  1.0950
 3869SOL     OW 8329   2.284   4.277   4.593  0.1347 -0.2806  0.1142
 3869SOL    HW1 8330   2.333   4.356   4.614 -0.5199  0.1131  0.1993
 3869SOL    HW2 8331   2.291   4.268   4.497 -0.5508  0.4029 -0.0081
 3870SOL     OW 8332   1.655   1.062   3.892 -0.0365  0.1562  0.0919
 3870SOL    HW1 8333   1.599   0.989   3.918 -0.9507  0.6470 -0.4601
 3870SOL    HW2 8334   1.639   1.130   3.958  1.1887 -0.3032  0.8920
 3871SOL     OW 8335   1.372   0.504   1.711 -0.0613 -0.2268 -0.0793
 3871SOL    HW1 8336   1.288   0.542   1.735 -1.2505 -3.0532  0.6794
 3871SOL    HW2 8337   1.351   0.442   1.641  1.8349  0.7288 -1.6087
 3872SOL     OW 8338   0.618   1.936   1.485  0.4333  1.0054 -0.7699
 3872SOL    HW1 8339   0.642   1.913   1.395 -0.5992  0.0032 -0.8076
 3872SOL    HW2 8340   0.698   1.919   1.536  0.6594  0.4106 -1.3091
 3873SOL     OW 8341   3.557   0.055   3.343 -0.0862 -0.1661 -0.7690
 3873SOL    HW1 8342   3.563   0.140   3.387 -0.1677 -0.4183 -0.2635
 3873SOL    HW2 8343   3.635   0.050   3.288  0.3332 -0.1125 -0.1777
 3874SOL     OW 8344   0.695   0.307   3.449  0.6872  0.5219 -0.4806
 3874SOL    HW1 8345   0.664   0.395   3.426  2.2739  0.9542 -1.0658
 3874SOL    HW2 8346   0.767   0.290   3.388  0.5173 -1.1293 -0.2665
 3875SOL     OW 8347   0.173   0.166   3.992 -0.1104  0.4363 -0.3254
 3875SOL    HW1 8348   0.172   0.239   4.054  0.4360  0.0946  0.0981
 3875SOL    HW2 8349   0.144   0.090   4.044 -2.2507  0.6371 -1.1563
 3876SOL     OW 8350   2.658   0.497   2.625  0.0141  0.0745  0.5525
 3876SOL    HW1 8351   2.610   0.575   2.655  1.1475  0.8821  0.3151
 3876SOL    HW2 8352   2.662   0.440   2.702 -1.9197 -0.3445  0.4008
 3877SOL     OW 8353   1.905   4.318   3.135  0.2848  0.6629 -0.0815
 3877SOL    HW1 8354   1.997   4.302   3.114  0.1989  0.9774 -0.7277
 3877SOL    HW2 8355   1.881   4.246   3.194  1.0571  0.8274  0.4487
 3878SOL     OW 8356   0.107   1.525   2.408  0.0473  0.4133  0.3860
 3878SOL    HW1 8357   0.024   1.479   2.415  0.3286 -0.0906  0.4697
 3878SOL    HW2 8358   0.096   1.603   2.461 -0.6613  0.7767 -0.2743
 3879SOL     OW 8359   2.469   3.226   2.041 -0.6976 -0.3152  0.1154
 3879SOL    HW1 8360   2.438   3.136   2.032  0.4208 -0.6375 -0.8315
 3879SOL    HW2 8361   2.491   3.252   1.952  1.0616  0.1129  0.6422
 3880SOL     OW 8362   1.146   2.395   2.007  0.0332  0.2396 -0.1705
 3880SOL    HW1 8363   1.199   2.396   2.087  2.5153 -1.5287 -1.6672
 3880SOL    HW2 8364   1.196   2.446   1.944 -0.2007 -1.1092 -1.5057
 3881SOL     OW 8365   2.466   1.988   2.591 -0.1340  0.3315  0.1089
 3881SOL    HW1 8366   2.389   1.959   2.640  1.2454 -1.5120  1.3054
 3881SOL    HW2 8367   2.431   2.046   2.524 -2.4053  0.6804  1.4960
 3882SOL     OW 8368   1.199   0.253   3.416  0.5391 -0.3516 -0.0648
 3882SOL    HW1 8369   1.270   0.275   3.356  1.8904 -1.2316  1.1682
 3882SOL    HW2 8370   1.213   0.310   3.492  0.7739 -1.4949  0.7691
 3883SOL     OW 8371   2.593   0.313   0.953 -0.6253 -0.0213 -0.0563
 3883SOL    HW1 8372   2.660   0.374   0.984  0.4229 -1.4846  0.7195
 3883SOL    HW2 8373   2.512   0.341   0.995 -0.4494  1.5570 -0.7140
 3884SOL     OW 8374   1.331   1.599   4.404  1.0266 -0.1328 -0.4192
 3884SOL    HW1 8375   1.263   1.535   4.428  2.7496 -2.9296 -2.3641
 3884SOL    HW2 8376   1.323   1.607   4.309  1.6988  1.6607 -0.3581
 3885SOL     OW 8377   1.609   0.675   1.584 -0.7002  0.2500  0.2723
 3885SOL    HW1 8378   1.521   0.638   1.591 -0.5974 -0.0029  0.2545
 3885SOL    HW2 8379   1.611   0.717   1.499 -0.3490 -0.9785 -0.3533
 3886SOL     OW 8380   2.563   3.341   3.902  0.5829  0.4458 -0.8522
 3886SOL    HW1 8381   2.575   3.289   3.823 -2.5407  1.2699 -1.9810
 3886SOL    HW2 8382   2.606   3.424   3.884 -1.5411  1.2650 -2.4614
 3887SOL     OW 8383   1.668   1.649   3.455 -0.6471  0.3544 -0.0672
 3887SOL    HW1 8384   1.758   1.643   3.486 -0.6835 -0.2744 -0.0618
 3887SOL    HW2 8385   1.622   1.577   3.501 -1.4829  1.5375  1.0430
 3888SOL     OW 8386   2.260   2.035   2.942  0.3517  0.4655  0.4322
 3888SOL    HW1 8387   2.343   2.069   2.977  0.8953 -0.2567 -0.1367
 3888SOL    HW2 8388   2.240   2.093   2.869  0.3938  0.5905  0.5184
 3889SOL     OW 8389   2.230   1.126   1.726  0.0701 -0.8336  0.0038
 3889SOL    HW1 8390   2.157   1.072   1.696 -0.7253  0.5746 -0.7323
 3889SOL    HW2 8391   2.189   1.204   1.763  1.1836  0.1591 -0.7477
 3890SOL     OW 8392   1.248   4.042   4.539 -0.0308  0.6509  0.2326
 3890SOL    HW1 8393   1.329   4.083   4.571 -0.6529  1.8636  0.3164
 3890SOL    HW2 8394   1.179   4.083   4.592 -0.5487 -2.1434  1.9385
 3891SOL     OW 8395   1.725   0.056   4.274  0.1041 -0.0295 -0.0281
 3891SOL    HW1 8396   1.637   0.085   4.253  0.1936 -0.5748 -1.2044
 3891SOL    HW2 8397   1.713  -0.030   4.314  0.1962 -1.1762 -2.3057
 3892SOL     OW 8398   3.294   1.978   1.390 -0.2165  0.3065  0.3622
 3892SOL    HW1 8399   3.328   1.903   1.440 -0.4164 -0.4116 -0.5589
 3892SOL    HW2 8400   3.199   1.973   1.402 -0.6546 -1.8779 -2.6847
 3893SOL     OW 8401   4.100   1.273   4.751  0.1951 -0.4222  0.6906
 3893SOL    HW1 8402   4.126   1.357   4.714  1.9569 -1.0754  0.3591
 3893SOL    HW2 8403   4.084   1.291   4.844 -2.4597  0.8456  0.0839
 3894SOL     OW 8404   3.080   1.086   2.928  0.1788  0.0943 -0.6256
 3894SOL    HW1 8405   3.080   1.078   3.024 -1.5935  1.9732 -0.3904
 3894SOL    HW2 8406   3.169   1.061   2.902  0.8722  0.0468  1.5513
 3895SOL     OW 8407   2.283   0.667   3.571 -0.7491  0.4353 -0.2388
 3895SOL    HW1 8408   2.250   0.707   3.490 -0.9856 -0.0239 -0.3747
 3895SOL    HW2 8409   2.220   0.597   3.590  0.4628 -0.8538 -0.8258
 3896SOL     OW 8410   3.080   2.438   0.896  0.3311  0.3970  0.2553
 3896SOL    HW1 8411   3.157   2.438   0.952 -0.1396  0.2646  0.9199
 3896SOL    HW2 8412   3.113   2.457   0.809  0.9071  2.0643  0.8085
 3897SOL     OW 8413   2.500   3.942   2.324 -0.0220 -0.4690 -0.3921
 3897SOL    HW1 8414   2.417   3.942   2.373 -0.5551 -2.8989 -1.1544
 3897SOL    HW2 8415   2.567   3.927   2.391 -0.0773  1.8780  0.2862
 3898SOL     OW 8416   2.707   1.469   1.518  0.4705 -0.8413 -0.2218
 3898SOL    HW1 8417   2.662   1.424   1.446 -0.5128 -1.2143  0.6138
 3898SOL    HW2 8418   2.638   1.488   1.582  1.1278  0.5196  0.1231
 3899SOL     OW 8419   2.266   0.884   5.029 -0.2865  0.4838  0.1112
 3899SOL    HW1 8420   2.198   0.820   5.050 -0.3210  1.1489  2.1704
 3899SOL    HW2 8421   2.315   0.843   4.957 -1.7005 -0.8187 -0.1713
 3900SOL     OW 8422   2.079   1.536   1.806  0.1638  0.1411 -0.0658
 3900SOL    HW1 8423   2.143   1.465   1.811 -1.5565 -1.5238 -0.7533
 3900SOL    HW2 8424   2.127   1.613   1.839  2.0602 -1.3080  0.7751
 3901SOL     OW 8425   3.620   0.841   1.913  0.2055 -0.2198 -0.1371
 3901SOL    HW1 8426   3.563   0.914   1.937 -0.0157 -0.0911 -1.0162
 3901SOL    HW2 8427   3.705   0.863   1.952  0.1525  0.5313 -0.4277
 3902SOL     OW 8428   1.266   1.499   2.428 -0.0813 -0.1152 -0.0973
 3902SOL    HW1 8429   1.305   1.559   2.492  0.2952  0.3128 -0.7174
 3902SOL    HW2 8430   1.285   1.412   2.461  0.2363  0.1046  0.3014
 3903SOL     OW 8431   3.018   3.908   2.672 -0.6222  0.3935 -0.2560
 3903SOL    HW1 8432   2.947   3.848   2.647 -0.3917 -0.5640  1.2553
 3903SOL    HW2 8433   3.098   3.858   2.658 -0.2493  1.2606 -1.3685
 3904SOL     OW 8434   3.025   3.991   2.353 -0.0989 -0.2069 -0.3144
 3904SOL    HW1 8435   3.083   3.916   2.341  0.1444  0.2151 -2.0791
 3904SOL    HW2 8436   3.078   4.067   2.331 -1.0312  0.2774 -0.9632
 3905SOL     OW 8437   3.092   0.680   2.450  0.3097  0.0815  0.4726
 3905SOL    HW1 8438   3.008   0.650   2.416 -0.5358  1.1150  1.5698
 3905SOL    HW2 8439   3.101   0.637   2.534  0.6509  0.3359  0.5693
 3906SOL     OW 8440   2.641   0.720   3.063  0.1277  0.1159  0.4124
 3906SOL    HW1 8441   2.719   0.674   3.031 -0.4908  0.8242 -2.4090
 3906SOL    HW2 8442   2.655   0.812   3.038 -0.1596  0.9248  2.9296
 3907SOL     OW 8443   2.126   3.735   2.352  0.1292  0.0927 -0.2050
 3907SOL    HW1 8444   2.120   3.651   2.306  1.2879 -0.3936  0.4975
 3907SOL    HW2 8445   2.038   3.773   2.343  0.1069 -0.3100 -2.1741
 3908SOL     OW 8446   2.595   1.797   2.976  0.0632 -0.4166  0.9675
 3908SOL    HW1 8447   2.612   1.754   2.893  2.3249  1.2572  0.4724
 3908SOL    HW2 8448   2.500   1.792   2.987 -0.2983 -0.5820 -1.7628
 3909SOL     OW 8449   2.727   0.570   3.525  0.5859 -0.2111 -0.0143
 3909SOL    HW1 8450   2.805   0.573   3.581  0.0415  1.2159  0.7246
 3909SOL    HW2 8451   2.748   0.629   3.452  1.2816 -2.0450 -1.3603
 3910SOL     OW 8452   3.212   1.942   3.051  0.0048  0.8770 -0.4619
 3910SOL    HW1 8453   3.131   1.899   3.076 -0.9543  1.5990 -2.1536
 3910SOL    HW2 8454   3.280   1.875   3.062 -0.6393  0.5414  1.8633
 3911SOL     OW 8455   2.204   2.911   3.960  0.3824  0.0448  0.1007
 3911SOL    HW1 8456   2.147   2.908   3.883 -0.4267 -0.7260  0.7147
 3911SOL    HW2 8457   2.222   3.005   3.973  1.8739  0.1091 -1.9729
 3912SOL     OW 8458   2.085   3.670   1.932  0.1965 -0.4466 -0.0816
 3912SOL    HW1 8459   1.997   3.673   1.969  0.4758 -1.2131  0.6702
 3912SOL    HW2 8460   2.141   3.642   2.004  1.0165 -0.2579 -0.6279
 3913SOL     OW 8461   2.397   0.039   3.810  0.4752 -0.4200  0.4691
 3913SOL    HW1 8462   2.427  -0.025   3.875  2.3303 -0.2478 -0.1327
 3913SOL    HW2 8463   2.451   0.116   3.826  0.1607  0.0301 -0.5233
 3914SOL     OW 8464   4.171   3.053   2.678 -0.3164  0.1573  0.2723
 3914SOL    HW1 8465   4.246   3.036   2.622 -0.9050  0.2072 -0.5421
 3914SOL    HW2 8466   4.122   2.971   2.678 -1.2044  0.6624 -0.6696
 3915SOL     OW 8467   2.296   1.592   2.663 -0.0617 -0.1839  0.2825
 3915SOL    HW1 8468   2.290   1.678   2.703 -0.5424  0.3117 -0.8016
 3915SOL    HW2 8469   2.244   1.599   2.582  2.0733 -0.6531 -1.2187
 3916SOL     OW 8470   2.178   0.508   3.221 -0.4036  0.0910 -0.1381
 3916SOL    HW1 8471   2.212   0.584   3.173 -0.6229 -1.0179 -2.1566
 3916SOL    HW2 8472   2.253   0.449   3.229 -0.5625 -0.0662  0.2234
 3917SOL     OW 8473   3.378   2.934   3.254 -0.0658 -0.4114 -0.1187
 3917SOL    HW1 8474   3.311   2.977   3.201 -0.9737  2.3922  2.9939
 3917SOL    HW2 8475   3.345   2.845   3.266 -1.3355 -0.1934 -1.6613
 3918SOL     OW 8476   1.188   4.183   3.196  0.2935 -0.3556  0.3849
 3918SOL    HW1 8477   1.275   4.223   3.202 -0.5395  2.2834 -2.4282
 3918SOL    HW2 8478   1.135   4.232   3.259 -0.1266  1.3943 -1.2309
 3919SOL     OW 8479   0.791   1.473   2.722  0.0809 -0.1569 -0.4434
 3919SOL    HW1 8480   0.829   1.560   2.723  0.8624 -0.4299 -2.3709
 3919SOL    HW2 8481   0.706   1.483   2.766  0.3366  1.4636 -0.2727
 3920SOL     OW 8482   0.832   1.778   2.801 -0.1290  0.0823  0.0800
 3920SOL    HW1 8483   0.805   1.795   2.711 -0.6952  1.5861  0.4991
 3920SOL    HW2 8484   0.924   1.804   2.803 -0.1124  0.0380 -0.0720
 3921SOL     OW 8485   2.666   4.210   1.602 -0.2102 -0.1105  0.6477
 3921SOL    HW1 8486   2.707   4.130   1.636  0.3495  0.7722  2.1458
 3921SOL    HW2 8487   2.589   4.222   1.657  0.7225  1.3581  1.7209
 3922SOL     OW 8488   2.227   3.528   1.455  0.3393 -0.2066 -0.4008
 3922SOL    HW1 8489   2.236   3.582   1.534  1.6612 -0.8283 -0.1034
 3922SOL    HW2 8490   2.135   3.502   1.454 -0.1240  1.3067 -0.0748
 3923SOL     OW 8491   1.272   1.578   2.182 -0.4027 -0.4636  0.1329
 3923SOL    HW1 8492   1.299   1.667   2.163  1.3978 -1.1796 -0.9133
 3923SOL    HW2 8493   1.275   1.571   2.277  2.2337 -0.1679  0.1370
 3924SOL     OW 8494   1.373   3.771   3.156 -0.2790  0.4137  0.3598
 3924SOL    HW1 8495   1.387   3.706   3.225  0.2330  1.2997  1.1097
 3924SOL    HW2 8496   1.321   3.725   3.090  0.8487 -1.0472  0.4305
 3925SOL     OW 8497   2.155   2.394   1.934 -1.2476  0.3135  0.0130
 3925SOL    HW1 8498   2.129   2.486   1.943  0.1025  0.6717  0.5575
 3925SOL    HW2 8499   2.240   2.397   1.890 -0.2284 -0.5154  1.7740
 3926SOL     OW 8500   1.849   0.834   3.238 -0.1086  0.1533 -0.2397
 3926SOL    HW1 8501   1.879   0.838   3.329 -0.8679  0.6133 -0.0014
 3926SOL    HW2 8502   1.919   0.788   3.192 -0.2010 -1.0515  0.7757
 3927SOL     OW 8503   3.278   2.209   3.052  0.3798 -0.9084 -0.9977
 3927SOL    HW1 8504   3.257   2.257   2.972 -0.1364 -0.7514 -0.7690
 3927SOL    HW2 8505   3.228   2.127   3.045 -0.4709 -0.4580 -0.3729
 3928SOL     OW 8506   2.899   1.857   3.107 -0.1264 -0.1950 -0.0204
 3928SOL    HW1 8507   2.806   1.850   3.086 -0.2576  1.6396 -0.2030
 3928SOL    HW2 8508   2.905   1.834   3.200 -0.2704 -3.3122 -0.6592
 3929SOL     OW 8509   2.876   2.133   3.094 -1.0588 -0.1806  0.6185
 3929SOL    HW1 8510   2.913   2.175   3.016  2.6631  0.9615  2.7586
 3929SOL    HW2 8511   2.910   2.044   3.091 -1.0753 -0.1928  0.8222
 3930SOL     OW 8512   2.858   0.823   4.233  0.0529  0.3414 -0.1058
 3930SOL    HW1 8513   2.941   0.851   4.195  0.4724  0.9957  1.2357
 3930SOL    HW2 8514   2.876   0.737   4.270  0.3330  0.7425  0.7294
 3931SOL     OW 8515   1.338   4.001   3.581  0.1654  0.1738 -0.0629
 3931SOL    HW1 8516   1.331   4.096   3.593  0.8447  0.1234  0.8539
 3931SOL    HW2 8517   1.292   3.963   3.656  0.1381 -0.2213 -0.2755
 3932SOL     OW 8518   3.569   1.056   2.104  0.3158 -0.0670  0.0771
 3932SOL    HW1 8519   3.562   1.077   2.197  1.1136  0.6114 -0.0027
 3932SOL    HW2 8520   3.663   1.053   2.088  0.1795 -0.1796 -0.7140
 3933SOL     OW 8521   0.988   4.014   4.750  0.5910 -0.0261  0.1648
 3933SOL    HW1 8522   0.923   4.008   4.680  0.8553  0.7885 -0.1619
 3933SOL    HW2 8523   0.940   3.989   4.829 -0.1123  0.4729 -0.0889
 3934SOL     OW 8524   1.554   0.090   2.307 -0.5175  0.0401  0.5636
 3934SOL    HW1 8525   1.605   0.165   2.338  0.6787  0.1878 -1.5771
 3934SOL    HW2 8526   1.616   0.037   2.258 -1.4164 -2.2441  1.7410
 3935SOL     OW 8527   0.717   3.797   3.477 -0.0346 -0.4318 -0.1800
 3935SOL    HW1 8528   0.801   3.752   3.464 -0.5467 -1.3216 -0.4266
 3935SOL    HW2 8529   0.739   3.890   3.469  0.8641 -0.6734 -0.6383
 3936SOL     OW 8530   3.882   1.009   4.099  0.1208  0.2931 -0.5455
 3936SOL    HW1 8531   3.836   0.988   4.018 -1.5151 -0.2746  0.4838
 3936SOL    HW2 8532   3.932   0.929   4.119 -1.9541 -0.8240  0.5878
 3937SOL     OW 8533   1.635   0.590   2.557 -0.2098 -0.0319  0.7870
 3937SOL    HW1 8534   1.719   0.546   2.543  0.0255  0.5101  0.4500
 3937SOL    HW2 8535   1.649   0.645   2.634 -0.0455  0.5487  0.3539
 3938SOL     OW 8536   2.144   2.621   2.997  0.0960 -0.6323 -0.0498
 3938SOL    HW1 8537   2.192   2.576   2.927  0.2617  2.3969 -2.0550
 3938SOL    HW2 8538   2.077   2.672   2.951  0.8089  2.2433  1.8452
 3939SOL     OW 8539   2.081   1.418   3.481 -0.3574  0.1845 -1.0675
 3939SOL    HW1 8540   2.067   1.412   3.386 -2.0898  2.4291 -1.0555
 3939SOL    HW2 8541   2.033   1.497   3.507  1.9152  0.9023  1.3611
 3940SOL     OW 8542   1.632   0.275   2.804  0.2530 -0.2798 -0.4130
 3940SOL    HW1 8543   1.591   0.299   2.721 -1.6064 -1.8462 -0.0263
 3940SOL    HW2 8544   1.614   0.350   2.862  2.1539  1.1295 -1.5140
 3941SOL     OW 8545   1.960   1.967   4.776  0.7303  0.3180 -0.0530
 3941SOL    HW1 8546   1.874   1.981   4.816  0.9367  1.6620 -0.0264
 3941SOL    HW2 8547   1.960   1.875   4.749 -0.9904  0.4909 -0.7190
 3942SOL     OW 8548   0.110   2.754   4.139 -0.2357  0.5698 -0.4412
 3942SOL    HW1 8549   0.060   2.786   4.214 -1.8230  0.0673 -1.2608
 3942SOL    HW2 8550   0.116   2.660   4.154 -0.7732  0.4341 -1.0649
 3943SOL     OW 8551   0.086   1.234   4.625  0.9146  0.1955 -0.3497
 3943SOL    HW1 8552   0.102   1.147   4.662  0.5748 -0.0837 -0.8525
 3943SOL    HW2 8553  -0.009   1.246   4.630  1.0080  0.7585  0.1983
 3944SOL     OW 8554   3.341   1.002   2.917  0.4474 -0.5302 -0.1489
 3944SOL    HW1 8555   3.405   0.975   2.852  0.1058 -3.2925  0.5121
 3944SOL    HW2 8556   3.353   1.097   2.926  1.7146 -0.3479 -2.8488
 3945SOL     OW 8557   1.237   2.938   2.510 -0.0920 -0.4819 -0.5571
 3945SOL    HW1 8558   1.170   2.898   2.566 -0.2318 -0.2006 -0.5177
 3945SOL    HW2 8559   1.197   3.021   2.482  0.3704 -0.1606 -0.2680
 3946SOL     OW 8560   2.533   2.209   4.228 -0.7044 -0.5792 -0.2018
 3946SOL    HW1 8561   2.622   2.174   4.216 -0.8491 -1.4259  1.0461
 3946SOL    HW2 8562   2.494   2.153   4.295 -2.1335 -0.1049 -0.6049
 3947SOL     OW 8563   1.914   0.457   3.222  0.1304 -0.3044  0.8980
 3947SOL    HW1 8564   1.886   0.469   3.313  2.8621 -0.1310  1.8146
 3947SOL    HW2 8565   2.010   0.462   3.225  0.3336 -0.4423 -1.9908
 3948SOL     OW 8566   2.338   0.608   1.384 -0.2680 -0.4567 -0.4539
 3948SOL    HW1 8567   2.300   0.636   1.300  1.4482 -0.2974 -1.2207
 3948SOL    HW2 8568   2.321   0.514   1.388  0.1459 -0.5749 -1.2756
 3949SOL     OW 8569   2.102   1.285   1.934 -0.2073 -0.3174  0.1779
 3949SOL    HW1 8570   2.184   1.298   1.981 -0.6158  1.0177  0.5794
 3949SOL    HW2 8571   2.042   1.249   2.000 -0.8670  1.8299  0.8753
 3950SOL     OW 8572   2.882   4.296   2.413 -0.3493  0.1898 -0.1013
 3950SOL    HW1 8573   2.794   4.303   2.375  0.3860  1.9040 -1.6729
 3950SOL    HW2 8574   2.938   4.345   2.352  1.4974  0.1718  1.4810
 3951SOL     OW 8575   1.112   1.254   3.106 -0.6019 -0.0528  0.0970
 3951SOL    HW1 8576   1.064   1.247   3.023 -0.9041 -2.0474  0.3825
 3951SOL    HW2 8577   1.059   1.204   3.168  1.3706 -1.5844  0.6415
 3952SOL     OW 8578   0.685   0.728   2.461 -0.3871  0.3401  0.6190
 3952SOL    HW1 8579   0.696   0.773   2.378  0.8889  1.1856  1.2070
 3952SOL    HW2 8580   0.730   0.644   2.450 -0.6212  0.2514  0.3206
 3953SOL     OW 8581   2.736   1.105   0.659  0.2609  0.2154  0.7953
 3953SOL    HW1 8582   2.784   1.187   0.647  0.6749 -0.2333 -0.9234
 3953SOL    HW2 8583   2.647   1.133   0.681  0.7087  1.0986  1.5398
 3954SOL     OW 8584   2.394   0.812   4.034  0.1460  0.7287 -0.4106
 3954SOL    HW1 8585   2.369   0.846   3.948 -0.3587  1.7441  0.1282
 3954SOL    HW2 8586   2.489   0.801   4.028  0.2072  1.4462 -0.8732
 3955SOL     OW 8587   1.578   1.458   3.197  0.0098  0.1494 -0.1382
 3955SOL    HW1 8588   1.508   1.400   3.226  0.1683  0.2356  0.4375
 3955SOL    HW2 8589   1.656   1.424   3.240  0.4937 -0.4628 -1.4458
 3956SOL     OW 8590   0.529   0.190   2.224 -0.3923 -0.7069 -0.3156
 3956SOL    HW1 8591   0.440   0.177   2.258  0.9586 -0.1986  4.0031
 3956SOL    HW2 8592   0.535   0.284   2.210 -0.4046 -0.6854 -0.1796
 3957SOL     OW 8593   3.815   3.536   2.138 -0.1396  0.5115 -0.0334
 3957SOL    HW1 8594   3.756   3.501   2.205 -0.3308  0.8933  0.0006
 3957SOL    HW2 8595   3.764   3.534   2.057 -0.1226  0.6355 -0.0475
 3958SOL     OW 8596   3.215   1.488   2.717  0.0236 -0.1367  0.7043
 3958SOL    HW1 8597   3.164   1.450   2.788  0.1028 -1.9713 -0.1602
 3958SOL    HW2 8598   3.257   1.413   2.674  0.1946  0.9235 -1.1056
 3959SOL     OW 8599   3.344   3.803   2.776  0.5628  0.3039 -0.1863
 3959SOL    HW1 8600   3.330   3.894   2.750  0.1594  0.0726 -0.7992
 3959SOL    HW2 8601   3.416   3.807   2.839  0.6121  1.0352 -0.2785
 3960SOL     OW 8602   2.403   3.517   3.069  0.3212 -0.1777 -0.1939
 3960SOL    HW1 8603   2.461   3.474   3.007 -1.6284  0.2609 -2.4460
 3960SOL    HW2 8604   2.455   3.589   3.105  1.2008  0.2067 -2.1059
 3961SOL     OW 8605   0.117   2.145   2.416 -0.4414 -0.2645 -0.7181
 3961SOL    HW1 8606   0.189   2.091   2.384  0.5485  0.0545  0.8470
 3961SOL    HW2 8607   0.149   2.235   2.407 -0.0194 -0.1690  1.2813
 3962SOL     OW 8608   2.237   4.271   3.496  0.1845  0.4591 -0.1486
 3962SOL    HW1 8609   2.162   4.297   3.549 -0.5147 -0.2057 -0.7933
 3962SOL    HW2 8610   2.236   4.331   3.422 -0.2980 -0.1491 -0.6513
 3963SOL     OW 8611   0.381   1.017   3.825  0.0272 -0.3652  0.5171
 3963SOL    HW1 8612   0.369   1.085   3.891 -0.9657  0.5384 -0.5364
 3963SOL    HW2 8613   0.403   0.938   3.875 -0.8794  0.2364  1.9440
 3964SOL     OW 8614   2.181   0.850   3.361 -0.1825 -0.0245 -0.6274
 3964SOL    HW1 8615   2.185   0.867   3.267  1.0212 -0.2258 -0.6318
 3964SOL    HW2 8616   2.217   0.930   3.401 -2.1825  0.7325 -0.2358
 3965SOL     OW 8617   3.471   1.285   1.982 -0.3563 -0.2280 -0.7109
 3965SOL    HW1 8618   3.555   1.330   1.978 -0.3321 -0.2414 -0.3805
 3965SOL    HW2 8619   3.489   1.204   2.029 -0.8076  0.3643  0.5493
 3966SOL     OW 8620   1.669   1.560   4.129  0.1304 -0.0837 -0.3853
 3966SOL    HW1 8621   1.748   1.572   4.182 -0.8963  1.6948  0.8350
 3966SOL    HW2 8622   1.597   1.561   4.192 -1.0702  1.2261 -1.7015
 3967SOL     OW 8623   2.448   3.652   3.703 -0.1200 -0.7443 -0.4700
 3967SOL    HW1 8624   2.368   3.690   3.666  0.1915 -0.3806 -0.7624
 3967SOL    HW2 8625   2.419   3.613   3.786 -0.3637  0.5077  0.0564
 3968SOL     OW 8626   2.142   0.954   3.109 -0.6429 -0.2194 -0.1842
 3968SOL    HW1 8627   2.079   0.921   3.045  0.1166 -0.6143 -0.7419
 3968SOL    HW2 8628   2.227   0.923   3.077  0.0414  1.7360 -0.3946
 3969SOL     OW 8629   0.379   0.218   3.293 -0.5561 -0.6933 -0.3671
 3969SOL    HW1 8630   0.344   0.304   3.274  0.9625  0.2473  0.8623
 3969SOL    HW2 8631   0.374   0.211   3.389  0.4832 -1.4462 -0.3550
 3970SOL     OW 8632   3.609   3.661   1.929 -0.0732 -0.6379 -0.2211
 3970SOL    HW1 8633   3.608   3.740   1.983  0.6380 -0.5789 -0.2833
 3970SOL    HW2 8634   3.521   3.655   1.893 -0.7543 -0.9936  1.3991
 3971SOL     OW 8635   3.298   0.807   2.321  0.0757 -0.2179  0.0688
 3971SOL    HW1 8636   3.234   0.752   2.366 -0.4593 -1.2796 -1.8857
 3971SOL    HW2 8637   3.246   0.860   2.260  0.9159 -0.0436 -0.5173
 3972SOL     OW 8638   2.005   1.206   2.826  0.1984 -0.3573  0.0497
 3972SOL    HW1 8639   1.957   1.235   2.904  1.0221  1.5926 -0.1209
 3972SOL    HW2 8640   1.984   1.113   2.818 -0.1603 -0.5313  2.4150
 3973SOL     OW 8641   1.910   4.127   3.341 -0.5386  0.1727 -0.6430
 3973SOL    HW1 8642   1.847   4.149   3.409  1.4380  0.5045  1.1947
 3973SOL    HW2 8643   1.868   4.058   3.290 -1.3313 -1.5933  2.2094
 3974SOL     OW 8644   1.482   1.715   3.195  0.1689  0.6735 -0.3124
 3974SOL    HW1 8645   1.533   1.634   3.189  0.3793  0.8794 -1.3887
 3974SOL    HW2 8646   1.505   1.751   3.281  3.5828  1.8875 -1.5502
 3975SOL     OW 8647   3.575   4.078   3.026  0.4561  0.3877 -0.2890
 3975SOL    HW1 8648   3.528   4.129   2.961 -0.0162  1.0254  0.5237
 3975SOL    HW2 8649   3.538   3.990   3.020 -0.6310  0.8022  0.1208
 3976SOL     OW 8650   0.550   3.804   4.409 -0.2820  0.0280  0.1875
 3976SOL    HW1 8651   0.465   3.761   4.401  0.7265 -1.7991 -1.4598
 3976SOL    HW2 8652   0.550   3.870   4.340  0.0536 -0.7658 -0.5861
 3977SOL     OW 8653   2.869   1.420   1.902 -0.1125  0.7473 -0.0485
 3977SOL    HW1 8654   2.891   1.485   1.836 -1.0497  0.2013 -0.9463
 3977SOL    HW2 8655   2.783   1.387   1.875  0.6688 -1.4386 -0.1145
 3978SOL     OW 8656   1.297   0.671   2.155 -0.2682  0.5465  0.2295
 3978SOL    HW1 8657   1.281   0.743   2.094  0.6283  1.1803  0.7113
 3978SOL    HW2 8658   1.213   0.656   2.198 -1.4494 -1.2045 -2.4643
 3979SOL     OW 8659   2.514   1.266   3.203 -0.1360 -0.4904  0.5023
 3979SOL    HW1 8660   2.527   1.281   3.109  1.1871 -0.4072  0.6912
 3979SOL    HW2 8661   2.481   1.350   3.235 -1.7953 -0.8793 -0.0799
 3980SOL     OW 8662   1.956   0.770   3.810 -0.2722  0.2795  0.0340
 3980SOL    HW1 8663   1.989   0.682   3.790  0.3743  0.6242 -0.4485
 3980SOL    HW2 8664   1.957   0.775   3.906  0.9600  0.2202  0.0471
 3981SOL     OW 8665   2.321   4.142   2.174  0.3002 -0.1968  0.6299
 3981SOL    HW1 8666   2.310   4.182   2.088 -2.3284 -1.7265  0.1720
 3981SOL    HW2 8667   2.398   4.086   2.164 -0.0090 -0.4134 -0.7461
 3982SOL     OW 8668   2.422   0.881   3.723  0.0203  0.4784 -0.5544
 3982SOL    HW1 8669   2.383   0.821   3.660  1.0116  1.9299 -2.6810
 3982SOL    HW2 8670   2.351   0.941   3.747 -0.9655 -1.3825  1.5616
 3983SOL     OW 8671   1.595   4.170   2.463 -0.2854 -0.2811 -0.3833
 3983SOL    HW1 8672   1.573   4.169   2.556 -1.6505 -0.3250 -0.6996
 3983SOL    HW2 8673   1.625   4.260   2.447  2.1288 -0.8332  0.5492
 3984SOL     OW 8674   3.939   1.951   1.668  0.5508 -0.2966  0.1320
 3984SOL    HW1 8675   3.892   1.986   1.593  1.6163  2.6968  0.7218
 3984SOL    HW2 8676   4.012   2.011   1.682  0.7155 -1.0023  3.2499
 3985SOL     OW 8677   1.569   1.209   1.722 -0.3491  0.4833  0.2136
 3985SOL    HW1 8678   1.583   1.196   1.629  0.5615  1.9333  0.1276
 3985SOL    HW2 8679   1.516   1.288   1.728 -0.0139  0.6588  0.9458
 3986SOL     OW 8680   1.184   1.481   2.927  0.2359 -0.0241  0.2077
 3986SOL    HW1 8681   1.238   1.450   2.854 -1.3543  1.3247 -1.6558
 3986SOL    HW2 8682   1.112   1.419   2.933  0.1348  0.1051  0.3600
 3987SOL     OW 8683   3.406   4.249   2.895  0.1802 -0.5323  0.3503
 3987SOL    HW1 8684   3.321   4.225   2.859  0.6584 -0.3795 -0.9172
 3987SOL    HW2 8685   3.446   4.305   2.829  0.7619  0.4386  1.4785
 3988SOL     OW 8686   2.486   3.768   2.891 -0.5069  0.2085  0.0869
 3988SOL    HW1 8687   2.455   3.858   2.888  1.6354  0.9929 -2.5191
 3988SOL    HW2 8688   2.580   3.775   2.907 -0.3036 -1.5683 -0.0737
 3989SOL     OW 8689   1.763   4.253   2.178 -0.5131 -0.0707  0.2762
 3989SOL    HW1 8690   1.847   4.229   2.216 -1.2357 -1.6398  0.9815
 3989SOL    HW2 8691   1.785   4.289   2.092  0.8251 -1.6544 -0.1065
 3990SOL     OW 8692   1.484   0.816   0.672  0.2651  0.1883  0.5963
 3990SOL    HW1 8693   1.461   0.904   0.702  1.9598 -0.0421  2.8883
 3990SOL    HW2 8694   1.551   0.830   0.606  2.1097  0.6869  2.4626
 3991SOL     OW 8695   2.642   3.986   1.114 -0.0791 -0.0656 -0.1326
 3991SOL    HW1 8696   2.732   3.956   1.129 -0.3493 -0.5414  0.5851
 3991SOL    HW2 8697   2.598   3.911   1.074 -0.6769 -0.5726  1.3873
 3992SOL     OW 8698   1.934   3.793   3.363 -0.5052 -0.6422 -0.1479
 3992SOL    HW1 8699   1.886   3.717   3.396 -2.2810  0.1310 -0.8179
 3992SOL    HW2 8700   1.937   3.854   3.437 -0.1323 -0.8853  0.0376
 3993SOL     OW 8701   0.998   0.391   1.138 -0.0665 -0.6462  0.7172
 3993SOL    HW1 8702   0.963   0.325   1.078 -1.8668  0.6782  0.2074
 3993SOL    HW2 8703   0.930   0.400   1.204 -0.1202  1.0871  0.4559
 3994SOL     OW 8704   3.144   4.102   1.282 -0.0911  0.4172 -0.2895
 3994SOL    HW1 8705   3.163   4.033   1.345  0.0392  0.1173 -0.6523
 3994SOL    HW2 8706   3.182   4.181   1.321 -0.7012  0.3994  0.3761
 3995SOL     OW 8707   2.051   0.867   2.857  0.7639 -0.1311  0.4474
 3995SOL    HW1 8708   1.969   0.857   2.809  0.4791  0.4873  0.7833
 3995SOL    HW2 8709   2.119   0.837   2.797  0.2721 -0.8366  0.2422
 3996SOL     OW 8710   1.492   1.349   2.125 -0.0046 -0.3350 -0.3163
 3996SOL    HW1 8711   1.428   1.419   2.108 -0.4766 -0.9658 -1.2316
 3996SOL    HW2 8712   1.547   1.347   2.047 -0.0128 -0.9988 -0.3112
 3997SOL     OW 8713   2.593   3.972   3.540  0.4224 -0.3449  0.2626
 3997SOL    HW1 8714   2.631   3.979   3.452 -1.1699  0.4533 -0.4185
 3997SOL    HW2 8715   2.556   4.059   3.556  0.1151 -0.6899  1.4533
 3998SOL     OW 8716   1.393   2.616   3.546  0.4837  0.4453 -0.0376
 3998SOL    HW1 8717   1.473   2.640   3.498  0.8739  1.0539  0.8867
 3998SOL    HW2 8718   1.322   2.654   3.494  0.8528  0.6470 -0.4097
 3999SOL     OW 8719   0.001   1.384   6.338  0.0393 -0.2186  0.3734
 3999SOL    HW1 8720  -0.013   1.478   6.326 -0.3545 -0.5023 -1.7871
 3999SOL    HW2 8721   0.010   1.373   6.433 -0.0244  1.9673  0.6834
 4000SOL     OW 8722   1.077   1.757   3.936 -0.1475  0.3465 -0.1399
 4000SOL    HW1 8723   1.078   1.706   3.854  0.3942  1.3077 -0.7534
 4000SOL    HW2 8724   0.991   1.742   3.973 -0.0816 -0.8337 -0.4223
 4001SOL     OW 8725   3.152   1.828   3.375 -0.4133 -0.0048  0.1192
 4001SOL    HW1 8726   3.167   1.920   3.394 -0.5879 -0.0352  0.4167
 4001SOL    HW2 8727   3.060   1.814   3.398  0.0570 -0.6661  1.7692
 4002SOL     OW 8728   3.194   2.005   4.955 -0.4107  0.2278  0.1546
 4002SOL    HW1 8729   3.108   1.971   4.931 -1.5214  1.9563  1.4673
 4002SOL    HW2 8730   3.204   1.984   5.048  0.6452 -0.0554 -0.0082
 4003SOL     OW 8731   3.236   1.306   7.081  0.0474  0.3460 -0.3009
 4003SOL    HW1 8732   3.239   1.347   7.167 -0.2624  0.9303 -0.5652
 4003SOL    HW2 8733   3.142   1.297   7.061  0.1080 -0.5641 -0.2123
 4004SOL     OW 8734   1.600   2.135   4.010 -0.7390  0.3306  0.0953
 4004SOL    HW1 8735   1.515   2.171   4.034 -0.9694  0.3010 -0.6463
 4004SOL    HW2 8736   1.643   2.206   3.963 -0.4103  0.2961  0.3436
 4005SOL     OW 8737   3.053   3.895   3.313  0.3080  0.1584  0.4003
 4005SOL    HW1 8738   2.987   3.961   3.296  1.8519  1.5228 -0.5988
 4005SOL    HW2 8739   3.094   3.922   3.395 -0.2695 -0.6209  0.9605
 4006SOL     OW 8740   1.626   1.205   4.785  0.0561 -0.3478 -0.0172
 4006SOL    HW1 8741   1.534   1.178   4.778 -0.1039 -0.4787  2.0368
 4006SOL    HW2 8742   1.624   1.288   4.833  1.0250 -0.5226  0.3580
 4007SOL     OW 8743   3.841   1.909   6.779 -0.4639  0.2287 -0.6209
 4007SOL    HW1 8744   3.807   1.821   6.797 -0.2453  0.3716  0.5125
 4007SOL    HW2 8745   3.929   1.894   6.744 -0.4309 -0.0073 -0.4390
 4008SOL     OW 8746   0.059   1.240   5.978  0.1756  0.4449  0.3404
 4008SOL    HW1 8747  -0.012   1.220   6.039  0.8742  0.0559  1.0378
 4008SOL    HW2 8748   0.103   1.316   6.017 -1.2629  2.2330 -1.2925
 4009SOL     OW 8749   2.303   0.134   5.025  0.1386  0.3586  0.0637
 4009SOL    HW1 8750   2.208   0.129   5.035  0.3208 -0.8668  1.4284
 4009SOL    HW2 8751   2.336   0.056   5.069  1.7987  0.8868 -0.1859
 4010SOL     OW 8752   1.323   2.074   3.415  0.2932 -0.2424  0.3118
 4010SOL    HW1 8753   1.278   2.100   3.496 -1.9539 -1.9900 -0.2642
 4010SOL    HW2 8754   1.377   2.000   3.440 -0.0913 -0.5274  0.3147
 4011SOL     OW 8755   2.337   1.545   3.783 -0.3700 -0.0057  0.3386
 4011SOL    HW1 8756   2.318   1.452   3.773  1.7159 -0.5181  0.7949
 4011SOL    HW2 8757   2.303   1.567   3.871  1.9822 -1.1759  1.6179
 4012SOL     OW 8758   1.764   1.149   5.459  0.3816 -0.0427 -0.4218
 4012SOL    HW1 8759   1.789   1.233   5.497  0.8367 -0.8565  1.1446
 4012SOL    HW2 8760   1.673   1.137   5.485  0.6703 -0.5659  0.3743
 4013SOL     OW 8761   1.327   0.426   6.703  0.0907  0.4310  0.3502
 4013SOL    HW1 8762   1.278   0.348   6.676 -0.5704  0.9480  0.0393
 4013SOL    HW2 8763   1.409   0.391   6.739 -0.2015 -0.4073  0.2290
 4014SOL     OW 8764   1.514   0.182   4.597 -0.0306 -0.6288 -0.2149
 4014SOL    HW1 8765   1.496   0.247   4.664 -1.3402 -1.9353  0.7820
 4014SOL    HW2 8766   1.445   0.194   4.532  0.6023 -0.0653 -0.7904
 4015SOL     OW 8767   2.272   3.181   3.996  0.5373  0.3237  0.3885
 4015SOL    HW1 8768   2.336   3.175   4.067  0.8630  2.5930  0.3517
 4015SOL    HW2 8769   2.233   3.268   4.005 -1.4147 -0.3865 -0.5714
 4016SOL     OW 8770   1.681   1.308   4.414 -0.3587  0.6454  0.2107
 4016SOL    HW1 8771   1.776   1.305   4.426 -0.1442  1.2026 -1.2114
 4016SOL    HW2 8772   1.656   1.395   4.444 -0.2348  0.9622 -0.5907
 4017SOL     OW 8773   3.998   2.493   4.743 -0.0295 -0.3987 -0.2783
 4017SOL    HW1 8774   3.998   2.446   4.660 -2.1191  1.0689 -1.1921
 4017SOL    HW2 8775   3.907   2.492   4.772  0.3631  0.5876  1.1280
 4018SOL     OW 8776   3.202   2.315   2.492  0.6444  0.0166  0.4752
 4018SOL    HW1 8777   3.108   2.302   2.478  0.4447  1.9089 -0.3137
 4018SOL    HW2 8778   3.240   2.228   2.482 -0.8944 -0.5943 -0.4475
 4019SOL     OW 8779   1.713   0.955   5.220 -0.5848 -0.2039  0.1691
 4019SOL    HW1 8780   1.716   1.003   5.304  0.2333  3.0430 -1.5374
 4019SOL    HW2 8781   1.793   0.981   5.176 -0.9355 -1.9618 -1.5874
 4020SOL     OW 8782   0.362   3.577   3.613 -0.6461 -0.0781 -0.3957
 4020SOL    HW1 8783   0.337   3.624   3.693 -2.2172 -1.5378  0.0644
 4020SOL    HW2 8784   0.456   3.563   3.621 -0.8840 -0.8176  1.5901
 4021SOL     OW 8785   0.119   0.386   4.149 -0.5308 -0.3646  0.0931
 4021SOL    HW1 8786   0.062   0.457   4.179 -1.1586 -1.3389  1.2862
 4021SOL    HW2 8787   0.165   0.357   4.228  0.0438 -1.0051 -0.4614
 4022SOL     OW 8788   3.361   0.899   5.546 -0.0249  0.1546 -0.8013
 4022SOL    HW1 8789   3.300   0.905   5.472 -1.1340 -1.5962 -0.0818
 4022SOL    HW2 8790   3.357   0.808   5.573 -0.5326  0.9580  2.1531
 4023SOL     OW 8791   1.568   1.419   5.967 -0.2249  0.4083  0.2071
 4023SOL    HW1 8792   1.635   1.362   6.005 -0.2766  0.2723  0.0924
 4023SOL    HW2 8793   1.509   1.438   6.041 -1.9259 -2.1206 -0.3703
 4024SOL     OW 8794   3.903   0.990   4.857 -0.4695 -0.4263 -0.7524
 4024SOL    HW1 8795   3.940   0.908   4.825  1.3145 -0.1687  0.4712
 4024SOL    HW2 8796   3.881   1.040   4.779  0.1581 -1.3316 -1.5196
 4025SOL     OW 8797   2.692   3.360   4.170  0.3431  0.0302 -0.0199
 4025SOL    HW1 8798   2.649   3.300   4.109 -2.8123  0.6675  1.3342
 4025SOL    HW2 8799   2.700   3.310   4.251  0.5424  0.4633  0.2344
 4026SOL     OW 8800   2.629   3.959   5.729  0.2152  0.4217  0.4401
 4026SOL    HW1 8801   2.681   4.036   5.705  0.2206  0.3405  0.1924
 4026SOL    HW2 8802   2.539   3.985   5.708  0.3444 -0.0781 -0.7711
 4027SOL     OW 8803   3.772   1.699   6.570 -0.1614  0.3843  0.6390
 4027SOL    HW1 8804   3.789   1.786   6.536  0.1322  0.4880  1.0319
 4027SOL    HW2 8805   3.858   1.657   6.573 -0.5472 -0.6781 -1.5241
 4028SOL     OW 8806   0.984   0.834   4.080 -0.6939  0.2825  0.2698
 4028SOL    HW1 8807   1.021   0.822   4.168 -0.8770  0.3488  0.3572
 4028SOL    HW2 8808   0.939   0.919   4.085  0.1169  0.7479 -0.1749
 4029SOL     OW 8809   3.322   0.646   5.592  0.5178 -0.2435  0.2857
 4029SOL    HW1 8810   3.268   0.625   5.668  1.5533 -1.0229  0.8368
 4029SOL    HW2 8811   3.395   0.584   5.597 -0.0297 -1.1754 -2.0503
 4030SOL     OW 8812   3.450   0.465   3.983  0.5989  0.2723 -0.1819
 4030SOL    HW1 8813   3.397   0.544   3.973  0.4064  0.4430  1.7700
 4030SOL    HW2 8814   3.537   0.489   3.950  0.6863  1.4945  0.8711
 4031SOL     OW 8815   3.044   0.098   4.473  0.6207 -0.6323 -0.1323
 4031SOL    HW1 8816   3.058   0.192   4.475  1.3850 -0.7478  0.5767
 4031SOL    HW2 8817   3.005   0.081   4.387  1.0219  0.2514 -0.5002
 4032SOL     OW 8818   2.710   0.950   5.199 -0.9925  0.2714  0.0649
 4032SOL    HW1 8819   2.800   0.959   5.232 -1.1047  1.4736  0.1163
 4032SOL    HW2 8820   2.718   0.892   5.124 -0.1025  0.6162 -0.1267
 4033SOL     OW 8821   3.142   3.556   7.462  0.2962  0.6195 -0.8127
 4033SOL    HW1 8822   3.079   3.484   7.466  0.9874  0.0697  0.9285
 4033SOL    HW2 8823   3.128   3.595   7.376 -0.3822 -1.3388 -1.6467
 4034SOL     OW 8824   2.661   1.616   3.191  0.3144 -0.2354 -0.2752
 4034SOL    HW1 8825   2.635   1.656   3.108 -0.5130  0.6984  0.4103
 4034SOL    HW2 8826   2.579   1.602   3.238  0.8833  1.6631  1.4534
 4035SOL     OW 8827   2.653   3.655   3.180 -0.2459 -0.5577 -0.1456
 4035SOL    HW1 8828   2.632   3.643   3.273  1.3595 -0.4350  0.2523
 4035SOL    HW2 8829   2.665   3.566   3.147 -1.4934 -0.6414 -0.4254
 4036SOL     OW 8830   2.586   3.803   4.329 -0.1314  0.7854  0.0757
 4036SOL    HW1 8831   2.615   3.817   4.239  0.3559 -2.1722 -0.3414
 4036SOL    HW2 8832   2.567   3.709   4.333 -0.9849  0.9945  2.8387
 4037SOL     OW 8833   1.958   1.786   5.122  0.3074  0.0232 -0.3073
 4037SOL    HW1 8834   2.034   1.769   5.178  0.0956 -0.9283 -0.2927
 4037SOL    HW2 8835   1.950   1.881   5.121  1.5076  0.1451 -0.3169
 4038SOL     OW 8836   0.574   2.220   5.622  0.4037  0.5417  0.5309
 4038SOL    HW1 8837   0.567   2.275   5.544  1.8464  0.4256  0.2840
 4038SOL    HW2 8838   0.643   2.261   5.674  0.5755 -0.2759  0.9669
 4039SOL     OW 8839   1.588   2.761   3.328  0.1432  0.6353  0.2855
 4039SOL    HW1 8840   1.614   2.825   3.261 -1.0502  0.8750  0.0379
 4039SOL    HW2 8841   1.550   2.688   3.278  0.6119  0.1537  0.6246
 4040SOL     OW 8842   2.791   1.934   2.421  0.4352 -0.3107 -0.2611
 4040SOL    HW1 8843   2.808   1.847   2.385  1.4596  0.2245 -1.1497
 4040SOL    HW2 8844   2.751   1.982   2.348 -0.5170 -0.1424  0.3504
 4041SOL     OW 8845   2.089   1.291   4.945  0.2320  0.1636  0.1715
 4041SOL    HW1 8846   2.047   1.376   4.959 -1.0423 -0.5897  1.1914
 4041SOL    HW2 8847   2.109   1.260   5.033 -0.8256 -1.2922 -0.0630
 4042SOL     OW 8848   1.851   0.553   3.494  0.3177 -0.2535  0.5360
 4042SOL    HW1 8849   1.883   0.517   3.577  1.3871 -0.9264 -0.1359
 4042SOL    HW2 8850   1.869   0.647   3.501 -1.6047  0.0780  1.9111
 4043SOL     OW 8851   2.594   3.768   5.256  0.4588  0.1784 -0.1100
 4043SOL    HW1 8852   2.600   3.740   5.347 -1.1752  0.9866  0.2702
 4043SOL    HW2 8853   2.652   3.845   5.251  0.0888  0.4934  0.3968
 4044SOL     OW 8854   2.661   0.324   3.407  0.2505 -0.4749  0.5214
 4044SOL    HW1 8855   2.712   0.348   3.329  1.1220  1.5073  1.6112
 4044SOL    HW2 8856   2.665   0.402   3.462 -0.3669 -1.8023  2.5483
 4045SOL     OW 8857   1.564   0.470   3.791 -0.2249 -0.0637  0.4365
 4045SOL    HW1 8858   1.620   0.511   3.725 -0.8266 -1.1123 -0.7575
 4045SOL    HW2 8859   1.626   0.435   3.856  0.3739  1.0120  0.4617
 4046SOL     OW 8860   2.394   1.050   4.740 -0.1093  0.5950  0.1214
 4046SOL    HW1 8861   2.410   0.962   4.775 -1.0174  0.4688  0.2278
 4046SOL    HW2 8862   2.313   1.042   4.690  0.6975  0.9801 -1.3174
 4047SOL     OW 8863   2.242   1.836   4.799 -0.2885 -0.4388  0.0791
 4047SOL    HW1 8864   2.168   1.896   4.805  0.2676  0.1467  2.9172
 4047SOL    HW2 8865   2.215   1.758   4.847  0.3148 -0.9416 -0.3723
 4048SOL     OW 8866   1.548   1.523   4.554  0.5197  0.4071 -0.9308
 4048SOL    HW1 8867   1.473   1.536   4.496  0.3754 -2.2661 -1.4891
 4048SOL    HW2 8868   1.508   1.502   4.639  0.5758 -0.8692 -1.1927
 4049SOL     OW 8869   3.008   1.228   3.175  0.8071  0.3808 -0.5903
 4049SOL    HW1 8870   3.097   1.253   3.201 -0.1425  0.8683  2.5840
 4049SOL    HW2 8871   2.957   1.308   3.185 -0.5971 -0.6484  0.9375
 4050SOL     OW 8872   2.202   2.297   4.165  0.2892 -0.2575 -0.1019
 4050SOL    HW1 8873   2.223   2.283   4.073 -1.7561 -1.6081 -0.4229
 4050SOL    HW2 8874   2.270   2.249   4.212  0.5735 -0.7044 -0.9408
 4051SOL     OW 8875   3.206   0.397   6.176  0.1670  0.2813 -0.5520
 4051SOL    HW1 8876   3.145   0.362   6.242 -1.1159  0.3013 -1.6718
 4051SOL    HW2 8877   3.170   0.368   6.092  0.5584  2.0052 -1.3677
 4052SOL     OW 8878   3.131   0.398   4.340 -0.0930 -0.3058 -0.3343
 4052SOL    HW1 8879   3.160   0.396   4.248 -3.2188 -1.6990 -1.4208
 4052SOL    HW2 8880   3.070   0.472   4.343  1.7251  1.2642  1.3580
 4053SOL     OW 8881   1.731   3.497   3.341 -0.3947  0.2288  0.1245
 4053SOL    HW1 8882   1.771   3.539   3.417 -0.7860 -0.1549  0.5454
 4053SOL    HW2 8883   1.718   3.406   3.367  0.0465 -0.0606 -0.6284
 4054SOL     OW 8884   2.061   3.497   3.815  0.4564 -0.4359  0.7389
 4054SOL    HW1 8885   2.152   3.516   3.793  0.6814 -0.1257  1.8751
 4054SOL    HW2 8886   2.015   3.578   3.800  0.7299 -0.0261  1.9533
 4055SOL     OW 8887   2.657   3.664   2.243  0.2216 -0.1725 -0.3124
 4055SOL    HW1 8888   2.596   3.668   2.316 -0.5343 -6.0099 -0.1320
 4055SOL    HW2 8889   2.606   3.629   2.170  2.6362 -2.8130 -0.9237
 4056SOL     OW 8890   3.435   1.094   6.123 -1.2674 -0.0574 -0.3281
 4056SOL    HW1 8891   3.416   1.107   6.030  0.1589 -0.5582 -0.7213
 4056SOL    HW2 8892   3.525   1.060   6.124 -0.2520  2.4430  1.3766
 4057SOL     OW 8893   3.045   1.258   6.237  0.0722  0.1023  0.0709
 4057SOL    HW1 8894   2.985   1.296   6.172  0.0345  1.4738  0.8645
 4057SOL    HW2 8895   3.074   1.177   6.197 -2.0803 -0.4810 -0.4805
 4058SOL     OW 8896   1.348   1.038   5.318 -0.5583  0.0264  0.6915
 4058SOL    HW1 8897   1.280   0.994   5.369 -0.2156  0.7013  1.7478
 4058SOL    HW2 8898   1.407   1.075   5.383 -0.4435  1.4433 -0.1803
 4059SOL     OW 8899   2.932   2.377   3.230 -0.1771  0.5575  0.1271
 4059SOL    HW1 8900   3.005   2.420   3.186 -0.1968  0.4631  0.0041
 4059SOL    HW2 8901   2.921   2.294   3.185  1.1919 -0.5131  1.6606
 4060SOL     OW 8902   0.153   4.117   3.725 -0.1920  0.3068 -0.0079
 4060SOL    HW1 8903   0.083   4.125   3.790 -0.5070  0.9886 -0.4171
 4060SOL    HW2 8904   0.216   4.186   3.749  0.4851 -0.4681  0.5149
 4061SOL     OW 8905   2.262   3.364   5.930  0.3644 -0.0197  0.3866
 4061SOL    HW1 8906   2.253   3.276   5.893 -0.6317 -0.1493  0.9140
 4061SOL    HW2 8907   2.316   3.351   6.008 -0.9317 -0.4208  1.2611
 4062SOL     OW 8908   0.975   1.700   3.673 -0.4811  0.0635 -0.3570
 4062SOL    HW1 8909   1.004   1.741   3.592 -0.3471  0.6120 -0.0375
 4062SOL    HW2 8910   0.948   1.612   3.647 -0.0412  0.0887 -0.9242
 4063SOL     OW 8911   1.155   0.135   4.388 -0.1765 -0.2427  0.2688
 4063SOL    HW1 8912   1.119   0.113   4.475 -0.7009 -1.7967 -0.2996
 4063SOL    HW2 8913   1.143   0.055   4.337  0.7864  0.4171 -1.0387
 4064SOL     OW 8914   0.559   1.309   5.276 -0.2885  0.9850  0.2735
 4064SOL    HW1 8915   0.583   1.291   5.367 -0.5023 -1.0099 -0.0167
 4064SOL    HW2 8916   0.472   1.271   5.266 -0.0165  0.6230 -0.9163
 4065SOL     OW 8917   2.545   3.692   5.789 -0.1295  0.2445 -0.0198
 4065SOL    HW1 8918   2.586   3.775   5.765 -1.5093  0.9560  0.0031
 4065SOL    HW2 8919   2.451   3.710   5.786 -0.4284 -0.9788  1.1534
 4066SOL     OW 8920   1.898   1.586   4.305  0.2653  0.5100  0.2057
 4066SOL    HW1 8921   1.946   1.520   4.355 -1.4149 -1.2376 -0.3539
 4066SOL    HW2 8922   1.960   1.617   4.239  0.4768 -2.3316 -1.0858
 4067SOL     OW 8923   4.020   0.339   4.030  0.2252  0.2218 -0.0966
 4067SOL    HW1 8924   4.025   0.244   4.022 -0.8193 -0.0726  1.9410
 4067SOL    HW2 8925   4.027   0.355   4.124  0.6622  2.1909 -0.4283
 4068SOL     OW 8926   1.465   1.843   4.504  0.1608 -0.4391 -0.1516
 4068SOL    HW1 8927   1.440   1.862   4.594  0.8471 -0.0015 -0.0414
 4068SOL    HW2 8928   1.400   1.781   4.473 -1.4904  1.1718 -0.1170
 4069SOL     OW 8929   2.095   0.740   4.792 -0.7059 -0.1466 -0.3534
 4069SOL    HW1 8930   2.101   0.695   4.708  0.1063  0.2393 -0.5139
 4069SOL    HW2 8931   2.100   0.833   4.769 -1.4922  0.0038  0.0422
 4070SOL     OW 8932   0.023   1.266   4.930 -0.2837 -0.4385 -0.0789
 4070SOL    HW1 8933   0.029   1.298   5.020 -1.4259 -0.6705  0.1052
 4070SOL    HW2 8934   0.015   1.346   4.877 -0.5702 -0.3301  0.1236
 4071SOL     OW 8935   2.355   2.257   6.981 -0.0393 -0.0436 -0.0243
 4071SOL    HW1 8936   2.261   2.276   6.980 -0.0704 -0.1646 -1.4536
 4071SOL    HW2 8937   2.396   2.339   6.958  0.2025 -0.0781  0.2710
 4072SOL     OW 8938   2.435   3.041   4.191 -0.2371 -0.2441 -0.4791
 4072SOL    HW1 8939   2.434   2.946   4.178  1.4779 -0.3422 -0.1260
 4072SOL    HW2 8940   2.518   3.069   4.153 -0.6702  1.1128 -0.4690
 4073SOL     OW 8941   2.764   4.310   6.376 -0.3565 -0.5723 -0.0760
 4073SOL    HW1 8942   2.675   4.310   6.412 -0.0939 -0.3545  0.5819
 4073SOL    HW2 8943   2.785   4.403   6.365 -0.2539 -0.6268 -0.3435
 4074SOL     OW 8944   0.989   1.244   2.866  0.1460  0.1015  0.0835
 4074SOL    HW1 8945   0.896   1.258   2.850  0.2388 -0.8928 -1.5894
 4074SOL    HW2 8946   1.012   1.171   2.808  2.1582  0.9070 -0.1996
 4075SOL     OW 8947   2.966   0.972   5.287 -0.4673 -0.5511 -0.2190
 4075SOL    HW1 8948   3.025   0.900   5.309  0.9415  0.3128 -1.0487
 4075SOL    HW2 8949   2.943   1.010   5.372  1.4811  0.0840  0.0871
 4076SOL     OW 8950   1.837   0.506   4.586 -0.3985  0.4733  0.1646
 4076SOL    HW1 8951   1.806   0.482   4.673 -0.5619 -0.7141 -0.2040
 4076SOL    HW2 8952   1.805   0.437   4.529  2.3864 -0.5443 -0.3295
 4077SOL     OW 8953   1.039   1.886   5.573 -0.4506 -0.1833  0.0833
 4077SOL    HW1 8954   1.082   1.929   5.498 -0.0720  2.5356  1.7220
 4077SOL    HW2 8955   0.946   1.903   5.560 -0.3034  1.1761  0.7101
 4078SOL     OW 8956   1.558   0.508   2.160  0.4857 -0.0622  0.4435
 4078SOL    HW1 8957   1.595   0.536   2.076 -0.3516 -2.9434 -1.0194
 4078SOL    HW2 8958   1.484   0.568   2.175  1.1252  0.9876 -0.4458
 4079SOL     OW 8959   3.480   1.145   4.935  0.3481 -0.0230 -0.0580
 4079SOL    HW1 8960   3.549   1.190   4.984 -0.5288  0.5227  0.7222
 4079SOL    HW2 8961   3.521   1.121   4.852  1.2713  0.8885  0.1101
 4080SOL     OW 8962   4.145   0.713   4.958 -0.1454  0.2533 -0.4397
 4080SOL    HW1 8963   4.153   0.805   4.984 -0.2160  0.4631 -1.1359
 4080SOL    HW2 8964   4.234   0.689   4.930  0.3194 -0.4546  1.4855
 4081SOL     OW 8965   1.678   0.114   5.401 -0.3585  0.0595  0.2357
 4081SOL    HW1 8966   1.762   0.104   5.445  0.9657  0.7540 -1.9943
 4081SOL    HW2 8967   1.614   0.081   5.464  1.5727 -0.6190  1.9452
 4082SOL     OW 8968   3.899   0.535   4.848 -0.0221  0.3541  0.1252
 4082SOL    HW1 8969   3.983   0.561   4.887  0.2618  0.6638 -0.6916
 4082SOL    HW2 8970   3.893   0.441   4.868  0.5743  0.3012  0.0881
 4083SOL     OW 8971   1.699   0.329   4.404 -0.4278  0.4339  0.4979
 4083SOL    HW1 8972   1.648   0.404   4.373  1.3726  1.5769  0.1647
 4083SOL    HW2 8973   1.634   0.273   4.447 -1.9903  1.7009 -0.0839
 4084SOL     OW 8974   2.764   0.580   6.003  0.3676 -0.4322  0.1392
 4084SOL    HW1 8975   2.832   0.576   5.935  0.3376 -0.5537  0.1158
 4084SOL    HW2 8976   2.811   0.603   6.083  0.3705 -0.0596  0.0313
 4085SOL     OW 8977   0.126   1.536   4.873  0.4563 -0.3648  0.2265
 4085SOL    HW1 8978   0.183   1.557   4.946 -0.3490  2.3078  0.2270
 4085SOL    HW2 8979   0.126   1.615   4.819 -1.7563 -0.9222 -0.7406
 4086SOL     OW 8980   1.230   4.102   5.489  0.0198 -0.0196  0.2985
 4086SOL    HW1 8981   1.167   4.157   5.536 -1.2695 -1.1048 -0.0688
 4086SOL    HW2 8982   1.190   4.088   5.403 -0.9321 -3.3686  1.1094
 4087SOL     OW 8983   2.432   0.975   5.225 -0.3572 -0.8934 -0.3249
 4087SOL    HW1 8984   2.519   0.934   5.222 -0.6131 -1.4000 -0.8039
 4087SOL    HW2 8985   2.381   0.928   5.160 -0.6721  0.1511 -0.8439
 4088SOL     OW 8986   4.192   0.026   4.764  0.4138 -0.1062 -0.0057
 4088SOL    HW1 8987   4.116   0.016   4.706  1.3046  0.5926 -1.3471
 4088SOL    HW2 8988   4.208  -0.062   4.797 -0.8403 -0.3066  0.1240
 4089SOL     OW 8989   0.549   2.163   5.939 -0.1701  0.0693 -0.2771
 4089SOL    HW1 8990   0.603   2.235   5.905 -0.5686 -0.1686 -1.4387
 4089SOL    HW2 8991   0.564   2.091   5.879 -3.4364  0.6333 -2.0239
 4090SOL     OW 8992   3.828   0.775   5.496  0.4200  0.1127  0.3407
 4090SOL    HW1 8993   3.822   0.868   5.517  0.0714  0.6678 -1.9731
 4090SOL    HW2 8994   3.822   0.771   5.400 -3.1129 -2.5422  0.4744
 4091SOL     OW 8995   1.223   1.572   5.823 -0.4662 -0.6699 -0.3396
 4091SOL    HW1 8996   1.131   1.546   5.820 -0.9833  1.0868 -0.6082
 4091SOL    HW2 8997   1.223   1.658   5.865  1.1936 -1.1560  0.7717
 4092SOL     OW 8998   2.794   3.997   5.302 -0.0034 -0.1204 -0.4979
 4092SOL    HW1 8999   2.847   4.049   5.241  2.6974 -1.9634  0.0809
 4092SOL    HW2 9000   2.841   4.003   5.385 -2.4834  0.6432  0.9538
 4093SOL     OW 9001   3.062   0.378   4.647  0.1856 -0.7018  0.6818
 4093SOL    HW1 9002   3.112   0.385   4.566  0.0466 -0.7885  0.5907
 4093SOL    HW2 9003   3.102   0.305   4.693 -0.2218 -1.1291  0.3586
 4094SOL     OW 9004   1.654   2.405   4.212  0.4898  0.4252  0.1409
 4094SOL    HW1 9005   1.651   2.379   4.304  0.4135  0.3780  0.1252
 4094SOL    HW2 9006   1.714   2.342   4.172 -0.7500 -0.6243 -0.1763
 4095SOL     OW 9007   2.255   1.375   4.759  0.3766 -0.2647 -0.4375
 4095SOL    HW1 9008   2.196   1.323   4.814  1.0371 -0.3652  0.2015
 4095SOL    HW2 9009   2.313   1.311   4.718 -0.4707 -0.2414 -1.7360
 4096SOL     OW 9010   0.258   1.504   6.319  0.2220  0.1714 -0.2607
 4096SOL    HW1 9011   0.172   1.467   6.297  0.3126 -0.8836  1.0524
 4096SOL    HW2 9012   0.318   1.461   6.258  0.2098 -1.3307  0.7331
 4097SOL     OW 9013   1.722   1.986   6.119  0.2417  0.3426 -0.3440
 4097SOL    HW1 9014   1.701   2.004   6.027 -1.1462  1.7509  0.2087
 4097SOL    HW2 9015   1.637   1.975   6.161  0.8815 -1.6605  0.5583
 4098SOL     OW 9016   2.657   2.945   4.474  0.1401  0.2913 -0.1871
 4098SOL    HW1 9017   2.582   2.911   4.524  0.4504  0.0093  0.0931
 4098SOL    HW2 9018   2.720   2.971   4.541  0.6868 -0.3821 -0.4322
 4099SOL     OW 9019   3.409   1.146   5.207  0.6040  0.0337  0.0070
 4099SOL    HW1 9020   3.469   1.085   5.250  0.6805 -0.2229 -0.4595
 4099SOL    HW2 9021   3.444   1.155   5.118  1.5084  1.9580  0.4985
 4100SOL     OW 9022   1.647   1.045   4.507 -0.3862 -0.6240  0.2688
 4100SOL    HW1 9023   1.674   1.037   4.598 -0.8348 -2.1523  0.3042
 4100SOL    HW2 9024   1.666   1.136   4.483 -1.3945  0.1717  2.2525
 4101SOL     OW 9025   1.346   1.094   4.473  0.1579 -0.2264 -0.0177
 4101SOL    HW1 9026   1.430   1.049   4.461  2.2011  3.3312 -0.4542
 4101SOL    HW2 9027   1.316   1.113   4.385  1.0358  1.9648  0.0978
 4102SOL     OW 9028   2.664   0.728   4.046 -0.0259 -0.5136  0.5008
 4102SOL    HW1 9029   2.729   0.759   4.109 -0.6613  1.5060  0.2341
 4102SOL    HW2 9030   2.714   0.707   3.967  0.7836 -3.0934  1.5856
 4103SOL     OW 9031   0.491   2.584   4.905  0.0034  0.1528  0.3050
 4103SOL    HW1 9032   0.410   2.609   4.949  1.2898  2.1596  1.6784
 4103SOL    HW2 9033   0.475   2.603   4.813 -1.2490  0.0321  0.4783
 4104SOL     OW 9034   2.206   0.779   4.219 -0.1680 -0.3060 -0.3192
 4104SOL    HW1 9035   2.170   0.690   4.211  0.5947 -0.7625  0.9811
 4104SOL    HW2 9036   2.268   0.786   4.147 -0.9369 -0.4715 -1.0090
 4105SOL     OW 9037   0.464   1.291   5.907 -0.3716  0.1980  0.0424
 4105SOL    HW1 9038   0.556   1.290   5.881 -0.0569  0.8510  1.0704
 4105SOL    HW2 9039   0.460   1.241   5.988 -0.8736  0.3656  0.1317
 4106SOL     OW 9040   2.478   0.332   4.998  0.0718  0.4812 -0.4136
 4106SOL    HW1 9041   2.431   0.384   4.933  0.8984 -1.3715 -2.6309
 4106SOL    HW2 9042   2.423   0.254   5.010  0.5665  0.2066  0.1100
 4107SOL     OW 9043   3.027   1.146   5.772 -0.5730 -0.1276 -0.1212
 4107SOL    HW1 9044   3.023   1.053   5.797  0.3781 -0.1449 -0.0166
 4107SOL    HW2 9045   2.994   1.147   5.682 -1.6521 -0.4010  0.2454
 4108SOL     OW 9046   1.001   0.772   2.568  0.1781 -0.0553  0.0183
 4108SOL    HW1 9047   1.024   0.779   2.660  0.3328  1.7378 -0.1272
 4108SOL    HW2 9048   0.934   0.839   2.554  0.3470 -0.1131 -1.2117
 4109SOL     OW 9049   2.257   0.485   4.334 -0.4077  0.2311  0.2276
 4109SOL    HW1 9050   2.188   0.460   4.273 -0.7430  2.5249 -0.4211
 4109SOL    HW2 9051   2.329   0.515   4.278 -0.7120  2.3396  0.8884
 4110SOL     OW 9052   1.626   2.110   4.583  0.2482  0.0343 -0.2136
 4110SOL    HW1 9053   1.706   2.058   4.572 -0.3477 -1.0632  0.5409
 4110SOL    HW2 9054   1.555   2.049   4.565 -0.4498  1.0620 -1.1356
 4111SOL     OW 9055   1.871   2.584   4.408 -0.2997 -0.1945 -0.8269
 4111SOL    HW1 9056   1.921   2.506   4.386  1.6898 -0.2368  2.9710
 4111SOL    HW2 9057   1.779   2.559   4.393  0.2987 -3.0989 -0.2623
 4112SOL     OW 9058   0.473   0.435   4.887 -0.3019  0.5096  0.0885
 4112SOL    HW1 9059   0.552   0.381   4.887 -1.0995 -0.7022 -0.2922
 4112SOL    HW2 9060   0.476   0.481   4.803  1.0479  2.1161  0.9703
 4113SOL     OW 9061   3.016   0.609   3.355  0.1967 -0.5431 -0.0203
 4113SOL    HW1 9062   2.939   0.656   3.322 -0.5416 -1.3566  0.4999
 4113SOL    HW2 9063   3.083   0.677   3.365 -0.5894  0.2633 -0.0607
 4114SOL     OW 9064   0.588   0.634   4.379  0.1337  0.3359 -0.3765
 4114SOL    HW1 9065   0.662   0.575   4.367 -0.1843  0.1741 -1.6148
 4114SOL    HW2 9066   0.627   0.716   4.409  0.8293  0.3050 -1.1647
 4115SOL     OW 9067   3.965   3.800   4.898 -0.3371 -0.0134  0.3966
 4115SOL    HW1 9068   3.879   3.763   4.917 -0.9713 -0.3305 -2.5815
 4115SOL    HW2 9069   3.984   3.772   4.808  2.4691  0.8371  0.6242
 4116SOL     OW 9070   2.673   1.528   5.169  0.4431  0.0206 -0.1114
 4116SOL    HW1 9071   2.732   1.544   5.243  0.4790  1.5627 -0.4387
 4116SOL    HW2 9072   2.694   1.439   5.141 -0.3081 -1.0291  2.3668
 4117SOL     OW 9073   2.612   1.735   5.667  0.6781  0.4649 -0.3111
 4117SOL    HW1 9074   2.683   1.723   5.730 -0.2830 -2.0378  0.4136
 4117SOL    HW2 9075   2.605   1.651   5.622 -2.3059  0.3399  0.2129
 4118SOL     OW 9076   2.605   3.870   3.786 -0.2329  0.0557 -0.6439
 4118SOL    HW1 9077   2.630   3.901   3.699  0.0202  0.9122 -0.2815
 4118SOL    HW2 9078   2.558   3.789   3.770  0.1736 -0.0164 -1.5508
 4119SOL     OW 9079   2.587   1.624   2.725  0.3146  0.1716  0.3472
 4119SOL    HW1 9080   2.499   1.599   2.697  0.1590  0.0568  0.9046
 4119SOL    HW2 9081   2.601   1.711   2.688  1.1151 -0.9435 -2.1682
 4120SOL     OW 9082   2.549   1.288   4.208 -0.2004 -0.1005  0.2421
 4120SOL    HW1 9083   2.583   1.208   4.168  1.5365  0.9737 -0.5534
 4120SOL    HW2 9084   2.496   1.258   4.282  0.6370 -1.9640  0.1184
 4121SOL     OW 9085   2.895   3.134   4.642  0.2380  0.3345 -0.0414
 4121SOL    HW1 9086   2.914   3.077   4.717  0.6469  0.6158  0.0751
 4121SOL    HW2 9087   2.894   3.222   4.680 -1.3790  0.3373 -0.0341
 4122SOL     OW 9088   1.590   1.451   3.868  0.9875  0.1180  0.4121
 4122SOL    HW1 9089   1.679   1.474   3.895  0.2156  1.5281  1.8911
 4122SOL    HW2 9090   1.534   1.517   3.908 -0.6727 -0.1581 -1.2777
 4123SOL     OW 9091   1.640   1.861   4.286 -0.1480  0.2675 -0.3476
 4123SOL    HW1 9092   1.635   1.771   4.317  1.1669 -0.5717 -2.3947
 4123SOL    HW2 9093   1.573   1.907   4.336  0.8204 -1.2454  2.5908
 4124SOL     OW 9094   2.569   3.300   4.890 -0.6623 -0.6463 -0.0439
 4124SOL    HW1 9095   2.509   3.372   4.912  0.7810  0.3717  0.7417
 4124SOL    HW2 9096   2.561   3.239   4.963 -0.1533 -0.0993  0.4846
 4125SOL     OW 9097   0.936   2.802   3.401 -0.2450 -0.4415  0.3000
 4125SOL    HW1 9098   0.906   2.751   3.476 -0.6319  0.5015  0.7953
 4125SOL    HW2 9099   0.869   2.870   3.390  0.1864 -0.1305 -0.4498
 4126SOL     OW 9100   1.890   3.586   5.560 -0.1304  0.3092 -0.5935
 4126SOL    HW1 9101   1.860   3.660   5.614  0.1746  1.7863 -2.3700
 4126SOL    HW2 9102   1.814   3.564   5.506 -0.3705 -1.0311  0.2458
 4127SOL     OW 9103   1.175   1.201   5.151 -0.5934 -0.5147  0.6411
 4127SOL    HW1 9104   1.099   1.148   5.128 -0.4509 -1.0648  1.3994
 4127SOL    HW2 9105   1.213   1.157   5.227 -0.4230  0.6059  1.2387
 4128SOL     OW 9106   2.633   2.268   3.401 -0.1112  0.6086 -0.0556
 4128SOL    HW1 9107   2.715   2.220   3.416 -1.5351 -1.3622  2.3463
 4128SOL    HW2 9108   2.614   2.307   3.486 -1.0055  2.1945 -0.9603
 4129SOL     OW 9109   2.221   1.630   6.771  0.0642  0.4662  0.2001
 4129SOL    HW1 9110   2.137   1.667   6.799  0.1544 -0.8517  2.5019
 4129SOL    HW2 9111   2.260   1.698   6.717 -2.8093  0.7981 -1.6780
 4130SOL     OW 9112   2.240   2.236   2.756 -0.2343  0.2450  0.5672
 4130SOL    HW1 9113   2.166   2.240   2.695  1.3260 -1.2521 -1.5811
 4130SOL    HW2 9114   2.263   2.327   2.772 -0.8780  0.6903 -0.8719
 4131SOL     OW 9115   3.914   4.313   4.683  0.1363 -0.1982  0.3164
 4131SOL    HW1 9116   3.901   4.235   4.630 -1.1641  0.5360 -0.5101
 4131SOL    HW2 9117   3.893   4.286   4.772 -0.4064 -0.7703  0.0223
 4132SOL     OW 9118   2.154   0.332   5.291 -0.5376 -0.2409  0.5047
 4132SOL    HW1 9119   2.138   0.257   5.234 -1.3109 -0.2352  0.7015
 4132SOL    HW2 9120   2.113   0.406   5.246  0.8424  0.2187 -0.0389
 4133SOL     OW 9121   0.472   0.533   3.781  0.1472 -0.1707  0.3392
 4133SOL    HW1 9122   0.421   0.474   3.725  0.3436  1.5207 -1.7473
 4133SOL    HW2 9123   0.428   0.529   3.866 -1.5273 -1.1915 -0.5123
 4134SOL     OW 9124   1.415   3.765   2.130  0.1603 -0.0350  0.1786
 4134SOL    HW1 9125   1.482   3.754   2.198 -0.9683 -0.8345  1.2221
 4134SOL    HW2 9126   1.344   3.708   2.158 -0.3831 -0.3281 -1.6710
 4135SOL     OW 9127   1.300   1.659   3.441  0.0371 -0.5039 -0.2067
 4135SOL    HW1 9128   1.340   1.586   3.489 -0.9224 -0.5367  0.5740
 4135SOL    HW2 9129   1.286   1.624   3.353 -0.6737 -1.3723  0.2336
 4136SOL     OW 9130   2.103   3.493   5.156 -0.0848 -0.6081 -0.3588
 4136SOL    HW1 9131   2.122   3.583   5.184  0.0902 -1.0708  1.0783
 4136SOL    HW2 9132   2.032   3.502   5.093 -0.2912  0.5202  0.0134
 4137SOL     OW 9133   3.624   2.838   5.206  0.2230  0.0841 -0.7144
 4137SOL    HW1 9134   3.684   2.844   5.280  1.4617 -0.0775 -1.6585
 4137SOL    HW2 9135   3.577   2.921   5.206 -0.4119 -0.2570  0.7415
 4138SOL     OW 9136   0.260   1.115   6.268 -0.0165 -0.4329 -0.3117
 4138SOL    HW1 9137   0.192   1.056   6.237  0.1784  0.2478 -2.1654
 4138SOL    HW2 9138   0.216   1.175   6.328 -0.9191 -0.4199 -0.9767
 4139SOL     OW 9139   1.462   1.405   2.853 -0.1572  0.5279 -0.6078
 4139SOL    HW1 9140   1.553   1.381   2.836 -0.6571 -0.5888 -1.9315
 4139SOL    HW2 9141   1.467   1.485   2.905  1.5722  0.3751 -0.4855
 4140SOL     OW 9142   0.724   0.986   2.987 -0.4914  0.3767 -0.0599
 4140SOL    HW1 9143   0.643   0.946   3.020 -0.2656  0.4349  0.5782
 4140SOL    HW2 9144   0.701   1.078   2.974 -0.8877  0.1468 -1.1150
 4141SOL     OW 9145   0.947   4.165   3.717  0.1032  0.1581 -0.7475
 4141SOL    HW1 9146   0.953   4.237   3.653 -0.6721  1.1216  0.2251
 4141SOL    HW2 9147   1.038   4.147   3.742  0.4014 -0.0844 -1.9332
 4142SOL     OW 9148   3.486   0.992   5.762 -0.0400 -0.0860 -0.0951
 4142SOL    HW1 9149   3.447   0.964   5.680  1.0485 -0.9767 -0.3344
 4142SOL    HW2 9150   3.563   0.936   5.772  1.7843  2.2531 -0.1834
 4143SOL     OW 9151   2.389   3.657   6.367  0.0180  0.1055 -0.1882
 4143SOL    HW1 9152   2.355   3.653   6.278  0.9253  0.0789 -0.5478
 4143SOL    HW2 9153   2.312   3.672   6.422 -0.3800  1.6706 -1.1112
 4144SOL     OW 9154   2.048   1.153   3.530  0.6248  0.1900 -0.2843
 4144SOL    HW1 9155   2.047   1.242   3.493  0.2432 -0.3753 -1.6941
 4144SOL    HW2 9156   1.988   1.157   3.604  0.0648  0.9394 -0.7653
 4145SOL     OW 9157   3.942   2.722   5.061 -0.2762  0.0068 -0.9026
 4145SOL    HW1 9158   3.895   2.786   5.007  0.3788  1.4951  0.2407
 4145SOL    HW2 9159   3.876   2.657   5.083 -1.4102  1.1885 -0.6770
 4146SOL     OW 9160   1.162   0.572   4.455  0.2770 -0.3140  0.1502
 4146SOL    HW1 9161   1.134   0.512   4.386  2.3798  1.4753 -2.5155
 4146SOL    HW2 9162   1.181   0.517   4.530 -1.3485 -2.4920 -0.9384
 4147SOL     OW 9163   2.362   3.794   2.123  0.2184 -0.7920 -0.4822
 4147SOL    HW1 9164   2.326   3.720   2.172  0.8284 -0.7708  0.0062
 4147SOL    HW2 9165   2.421   3.838   2.185  0.1716 -0.1288 -0.8923
 4148SOL     OW 9166   0.999   1.083   3.743  0.3949 -0.9178  0.1281
 4148SOL    HW1 9167   1.092   1.103   3.729  0.5952  0.0951  2.5239
 4148SOL    HW2 9168   0.997   0.988   3.754  1.5545 -0.7245  2.4413
 4149SOL     OW 9169   1.625   0.864   7.002 -0.0883  0.1762 -0.3609
 4149SOL    HW1 9170   1.557   0.927   7.024  1.1514  1.2135  0.6941
 4149SOL    HW2 9171   1.707   0.907   7.028  0.7855 -1.9958  0.7190
 4150SOL     OW 9172   1.317   1.040   4.902  0.1331  0.1640  0.3312
 4150SOL    HW1 9173   1.256   1.094   4.952 -1.3871 -1.1207 -0.0471
 4150SOL    HW2 9174   1.380   1.010   4.967 -0.0560  0.9293  0.8858
 4151SOL     OW 9175   1.132   3.191   3.306 -0.0865  0.2388 -0.8203
 4151SOL    HW1 9176   1.167   3.156   3.389  0.8291  0.5074 -1.0792
 4151SOL    HW2 9177   1.203   3.246   3.272 -0.5070  0.2293 -1.7227
 4152SOL     OW 9178   3.056   4.093   5.518  0.1487 -0.3689 -0.0999
 4152SOL    HW1 9179   3.132   4.063   5.569  1.2940  1.1073 -0.8660
 4152SOL    HW2 9180   3.086   4.093   5.428 -0.5053  0.9768 -0.3370
 4153SOL     OW 9181   1.722   4.110   3.515  0.1610  0.3691 -0.2698
 4153SOL    HW1 9182   1.689   4.022   3.493  0.6272  0.0044  0.4760
 4153SOL    HW2 9183   1.702   4.121   3.608  0.0363  1.0963 -0.3733
 4154SOL     OW 9184   2.219   0.954   5.602  0.1964 -0.4166 -0.4210
 4154SOL    HW1 9185   2.246   0.875   5.649 -0.3111 -1.2057 -1.4109
 4154SOL    HW2 9186   2.132   0.933   5.568 -0.5818  1.0992  0.4781
 4155SOL     OW 9187   0.136   1.034   4.842 -0.1636  0.1752  0.6734
 4155SOL    HW1 9188   0.158   1.098   4.910 -0.2145 -1.8377  2.6975
 4155SOL    HW2 9189   0.041   1.021   4.851 -0.1728 -0.1102  0.1992
 4156SOL     OW 9190   2.887   0.266   5.772  0.0381 -0.7503 -0.6128
 4156SOL    HW1 9191   2.921   0.182   5.743 -1.1506 -1.2926 -0.4948
 4156SOL    HW2 9192   2.794   0.264   5.750 -0.4743 -0.3524  1.3059
 4157SOL     OW 9193   2.722   0.108   4.504  0.4634  0.9353  0.1117
 4157SOL    HW1 9194   2.716   0.056   4.584 -1.6598  0.3750 -0.3533
 4157SOL    HW2 9195   2.808   0.150   4.509  1.9114 -1.8480  0.9628
 4158SOL     OW 9196   1.827   3.775   5.782  0.3617  0.2412 -0.4170
 4158SOL    HW1 9197   1.816   3.791   5.876 -0.5269  4.4470 -1.0373
 4158SOL    HW2 9198   1.922   3.763   5.772  0.3315 -1.8601  1.1119
 4159SOL     OW 9199   3.172   0.101   4.171  1.0472  0.2893 -0.1820
 4159SOL    HW1 9200   3.191   0.167   4.237  1.3361 -1.0687  1.1503
 4159SOL    HW2 9201   3.235   0.118   4.101  0.9681  1.5315  0.0226
 4160SOL     OW 9202   2.864   2.992   4.901 -0.1651 -0.2006 -0.5878
 4160SOL    HW1 9203   2.795   2.934   4.867 -0.4570 -0.4003  0.3174
 4160SOL    HW2 9204   2.817   3.065   4.941 -0.0135 -1.4860  2.1684
 4161SOL     OW 9205   0.932   2.535   2.074  0.0169  0.7379 -0.3560
 4161SOL    HW1 9206   1.002   2.497   2.021  0.4546  2.7390 -1.3134
 4161SOL    HW2 9207   0.947   2.630   2.068 -0.7929  1.0907  2.1709
 4162SOL     OW 9208   0.708   3.896   4.017  0.1229 -0.0414 -0.5536
 4162SOL    HW1 9209   0.754   3.912   3.935  1.0546 -0.6534 -0.1714
 4162SOL    HW2 9210   0.762   3.937   4.084  0.2192 -0.9049 -0.0788
 4163SOL     OW 9211   2.793   3.477   6.392  0.3186 -0.0957  0.0147
 4163SOL    HW1 9212   2.720   3.416   6.378  0.8218 -0.5675 -0.5782
 4163SOL    HW2 9213   2.812   3.511   6.305 -0.5322  1.6024  0.4434
 4164SOL     OW 9214   3.111   4.089   7.250  0.3721 -0.4615  0.5978
 4164SOL    HW1 9215   3.024   4.053   7.232 -0.0237  1.1595 -1.0701
 4164SOL    HW2 9216   3.167   4.053   7.182  1.1166 -1.7155  1.8261
 4165SOL     OW 9217   3.478   0.400   5.911 -0.2544 -0.6063 -0.2513
 4165SOL    HW1 9218   3.481   0.322   5.855 -2.2922 -1.1607  0.3150
 4165SOL    HW2 9219   3.478   0.367   6.000  0.7199  0.1528  0.0451
 4166SOL     OW 9220   1.406   0.324   6.069 -0.3176 -0.1550  0.5523
 4166SOL    HW1 9221   1.319   0.285   6.067  0.9585 -3.2907  0.2093
 4166SOL    HW2 9222   1.443   0.295   6.153  1.5986 -1.9929 -0.8250
 4167SOL     OW 9223   2.361   1.972   5.503 -0.6214 -0.6983 -0.4580
 4167SOL    HW1 9224   2.389   1.976   5.412 -1.5877  0.6200 -0.7110
 4167SOL    HW2 9225   2.278   2.018   5.505 -0.6389 -0.7528  1.0928
 4168SOL     OW 9226   4.072   1.442   7.547 -0.1040  0.1022  0.6635
 4168SOL    HW1 9227   4.118   1.360   7.530 -0.3619  0.1256 -0.1865
 4168SOL    HW2 9228   3.981   1.424   7.522 -0.4316  0.2606  1.6915
 4169SOL     OW 9229   3.222   0.549   7.383  1.2832  0.1269 -0.9760
 4169SOL    HW1 9230   3.145   0.605   7.397  1.2888  0.4604 -2.1417
 4169SOL    HW2 9231   3.285   0.606   7.339  1.7740 -0.4518 -1.0383
 4170SOL     OW 9232   2.453   1.694   6.412 -0.5676  0.5302  0.4470
 4170SOL    HW1 9233   2.403   1.614   6.401  0.2214  0.3041 -1.9909
 4170SOL    HW2 9234   2.397   1.763   6.378  0.1547  0.4676 -0.9463
 4171SOL     OW 9235   4.309   3.409   6.054  0.1019  0.1621  0.9178
 4171SOL    HW1 9236   4.392   3.376   6.021 -0.5564 -0.8917  0.2306
 4171SOL    HW2 9237   4.271   3.455   5.979 -0.6589 -0.8062  0.6809
 4172SOL     OW 9238   1.558   1.796   6.420 -0.1293 -0.1872  0.2007
 4172SOL    HW1 9239   1.646   1.761   6.402  1.2086  1.9449  1.9757
 4172SOL    HW2 9240   1.544   1.862   6.352 -1.0498 -1.5141 -0.9484
 4173SOL     OW 9241   0.339   0.782   7.477  0.2316 -0.4114 -0.2806
 4173SOL    HW1 9242   0.357   0.699   7.434  0.4297  0.2287 -1.4735
 4173SOL    HW2 9243   0.364   0.848   7.413  1.5530  0.6160  1.2214
 4174SOL     OW 9244   0.078   0.051   7.259  0.2358 -0.6487  0.4457
 4174SOL    HW1 9245   0.094   0.143   7.237 -0.0275 -0.7699 -0.2782
 4174SOL    HW2 9246   0.004   0.026   7.204  0.4853 -1.3754  0.4344
 4175SOL     OW 9247   0.799   0.795   6.549  0.2569  0.1266  0.3012
 4175SOL    HW1 9248   0.761   0.824   6.467  0.8751  4.7510  1.3843
 4175SOL    HW2 9249   0.747   0.718   6.574 -1.5333  0.0505 -3.1345
 4176SOL     OW 9250   1.801   3.961   5.222 -0.4799 -0.1296 -0.3961
 4176SOL    HW1 9251   1.825   4.029   5.158 -2.9382 -0.5400 -1.8617
 4176SOL    HW2 9252   1.732   4.002   5.275 -1.6277 -1.2710 -0.9675
 4177SOL     OW 9253   3.213   1.952   7.673  0.4086  0.2201 -0.4413
 4177SOL    HW1 9254   3.280   2.016   7.698  1.3852 -0.4272 -1.3191
 4177SOL    HW2 9255   3.259   1.889   7.617 -0.8410 -0.4921 -0.7154
 4178SOL     OW 9256   2.224   0.455   6.617  0.1075 -0.3033 -0.1061
 4178SOL    HW1 9257   2.148   0.467   6.560  0.5792 -1.3137 -0.9726
 4178SOL    HW2 9258   2.196   0.388   6.680 -0.3823  0.7481  0.8319
 4179SOL     OW 9259   0.710   0.077   7.140 -0.7954 -0.1372  0.0962
 4179SOL    HW1 9260   0.669   0.002   7.097  0.5373 -0.1847 -1.1506
 4179SOL    HW2 9261   0.725   0.140   7.070  3.4206 -1.0575 -0.0986
 4180SOL     OW 9262   3.112   2.924   6.760  0.1732 -0.1281  0.0023
 4180SOL    HW1 9263   3.163   2.846   6.784  0.9466  0.1708 -0.6013
 4180SOL    HW2 9264   3.022   2.902   6.782  0.4012 -1.1424 -0.0179
 4181SOL     OW 9265   3.161   0.807   5.394 -0.0123  0.1716  0.0373
 4181SOL    HW1 9266   3.186   0.728   5.443  2.7419  1.8335  1.5719
 4181SOL    HW2 9267   3.216   0.805   5.316  0.4531  0.7932  0.3395
 4182SOL     OW 9268   3.875   0.450   7.689  0.0281 -0.1174 -0.2901
 4182SOL    HW1 9269   3.836   0.530   7.725  0.4692  0.3961 -0.9120
 4182SOL    HW2 9270   3.906   0.476   7.602  2.9926 -0.0996  0.6453
 4183SOL     OW 9271   0.063   1.816   5.498 -0.3513  0.4015 -0.0475
 4183SOL    HW1 9272   0.056   1.900   5.543 -2.1080  0.2550  0.0353
 4183SOL    HW2 9273   0.157   1.797   5.497  0.0276  2.0541  0.4779
 4184SOL     OW 9274   2.146   2.734   6.818 -0.4992 -0.0512  0.1810
 4184SOL    HW1 9275   2.057   2.700   6.824 -2.3413  3.9452 -0.8029
 4184SOL    HW2 9276   2.164   2.736   6.724  0.5092 -0.4927  0.3573
 4185SOL     OW 9277   0.321   2.018   5.949  0.2918  0.2686 -0.9266
 4185SOL    HW1 9278   0.381   2.090   5.967 -0.8720  1.1412 -0.4167
 4185SOL    HW2 9279   0.237   2.060   5.933 -0.7103 -1.0089  0.6231
 4186SOL     OW 9280   2.767   1.056   7.445  0.5237 -0.4520  0.0337
 4186SOL    HW1 9281   2.743   0.985   7.505 -0.5855  0.0773  0.2460
 4186SOL    HW2 9282   2.795   1.127   7.502 -0.7678  0.1379 -0.0352
 4187SOL     OW 9283   2.291   1.366   5.171 -0.1426 -0.5777  0.3468
 4187SOL    HW1 9284   2.288   1.280   5.129 -1.3217  0.0321 -0.8673
 4187SOL    HW2 9285   2.205   1.376   5.211  0.5398 -0.6125  1.8897
 4188SOL     OW 9286   2.070   1.120   5.236  0.5149 -0.6317  0.0879
 4188SOL    HW1 9287   2.038   1.197   5.283  1.3135 -0.3253  0.1567
 4188SOL    HW2 9288   2.066   1.049   5.300  1.1679 -0.3144  0.4928
 4189SOL     OW 9289   2.099   4.251   4.318  0.2007 -0.3625 -0.5733
 4189SOL    HW1 9290   2.152   4.188   4.270  1.9371 -0.9577  1.9258
 4189SOL    HW2 9291   2.060   4.201   4.390 -3.0911  0.2868 -1.7103
 4190SOL     OW 9292   0.996   0.970   6.346  0.4584 -0.1398 -0.1541
 4190SOL    HW1 9293   0.918   0.934   6.303  1.3451 -0.1205 -1.8143
 4190SOL    HW2 9294   1.067   0.911   6.322  0.9766 -0.1996  1.4077
 4191SOL     OW 9295   1.030   2.170   5.209 -0.1029 -0.0777 -0.1630
 4191SOL    HW1 9296   0.945   2.127   5.211  0.0394 -0.3512  0.8938
 4191SOL    HW2 9297   1.013   2.260   5.236 -0.2343  0.2219 -1.2242
 4192SOL     OW 9298   1.188   2.060   6.642  0.4982  0.0090  0.0669
 4192SOL    HW1 9299   1.157   2.146   6.670 -0.5083 -0.4949  0.5551
 4192SOL    HW2 9300   1.283   2.063   6.655  0.2055  0.1823  2.5154
 4193SOL     OW 9301   1.839   0.209   6.948 -0.1326  0.2671 -0.1730
 4193SOL    HW1 9302   1.912   0.228   7.006  1.2142 -1.3933 -1.2010
 4193SOL    HW2 9303   1.823   0.115   6.960 -1.9442  0.5523 -0.1537
 4194SOL     OW 9304   3.937   0.669   5.725 -0.3519  0.1322 -0.1849
 4194SOL    HW1 9305   3.896   0.695   5.643 -1.0013 -4.2310 -1.5275
 4194SOL    HW2 9306   4.019   0.628   5.700  0.7908  1.1060  1.6943
 4195SOL     OW 9307   0.101   3.386   5.479 -0.1159  0.2473 -0.1913
 4195SOL    HW1 9308   0.120   3.433   5.397 -0.2958 -1.3348 -1.1870
 4195SOL    HW2 9309   0.054   3.308   5.451 -0.1119 -0.3715  1.4402
 4196SOL     OW 9310   0.400   0.501   5.685 -0.3743 -0.0466  0.1807
 4196SOL    HW1 9311   0.466   0.457   5.739 -0.0043  1.1352  0.7292
 4196SOL    HW2 9312   0.350   0.554   5.747 -0.3112  0.8861 -0.5323
 4197SOL     OW 9313   1.907   0.410   6.170  0.3366 -0.1061  0.4807
 4197SOL    HW1 9314   1.945   0.397   6.083  0.7143  0.3729  0.5694
 4197SOL    HW2 9315   1.861   0.328   6.189 -0.6156  0.1494 -0.5923
 4198SOL     OW 9316   3.286   1.415   6.281  0.1083 -0.3869  0.1141
 4198SOL    HW1 9317   3.205   1.366   6.264 -1.3572  2.5074 -2.1935
 4198SOL    HW2 9318   3.350   1.377   6.221 -1.3413  1.0797 -2.5481
 4199SOL     OW 9319   2.511   0.384   7.276  0.4903  0.0505 -0.3763
 4199SOL    HW1 9320   2.467   0.428   7.349 -0.3367 -2.6425  0.9030
 4199SOL    HW2 9321   2.600   0.417   7.279  0.5614 -0.1180  2.1176
 4200SOL     OW 9322   2.457   3.749   7.449  0.1701 -0.0012  0.5150
 4200SOL    HW1 9323   2.527   3.759   7.513  1.5448 -0.9831 -0.7817
 4200SOL    HW2 9324   2.490   3.685   7.386 -1.0211  1.1187 -1.3492
 4201SOL     OW 9325   1.725   1.210   6.032  0.1317 -0.4498 -0.1149
 4201SOL    HW1 9326   1.726   1.132   6.087 -0.6485 -0.2827  0.1366
 4201SOL    HW2 9327   1.794   1.194   5.967 -0.9378 -1.9458 -0.9127
 4202SOL     OW 9328   2.254   0.006   7.392  0.8665  0.5564  0.4644
 4202SOL    HW1 9329   2.344   0.027   7.416  0.1723  3.4446  0.9433
 4202SOL    HW2 9330   2.207   0.089   7.401 -1.8414 -0.8373  0.1407
 4203SOL     OW 9331   1.809   0.903   5.682 -0.1621  0.0361  0.1744
 4203SOL    HW1 9332   1.717   0.926   5.673 -0.5850 -1.4618  0.4583
 4203SOL    HW2 9333   1.809   0.827   5.740  0.9824 -1.8003 -2.0850
 4204SOL     OW 9334   3.175   4.144   5.283  0.9151  0.0608  0.2705
 4204SOL    HW1 9335   3.090   4.143   5.239  1.2216  0.1314 -0.3256
 4204SOL    HW2 9336   3.239   4.143   5.212  1.4233 -0.9187  0.7150
 4205SOL     OW 9337   0.060   1.712   5.240  0.8996 -0.8308  0.5679
 4205SOL    HW1 9338  -0.012   1.744   5.185  1.0126 -1.8259 -0.1806
 4205SOL    HW2 9339   0.056   1.768   5.317 -0.6194 -0.7933  0.5086
 4206SOL     OW 9340   2.098   0.778   7.028 -0.1682  0.3394  0.1279
 4206SOL    HW1 9341   2.146   0.861   7.024  1.3124 -0.5041 -0.7783
 4206SOL    HW2 9342   2.136   0.726   6.958 -0.2985 -1.5050  1.3713
 4207SOL     OW 9343   0.300   1.731   5.503  0.5499  0.0078  0.0161
 4207SOL    HW1 9344   0.373   1.703   5.449 -0.2896 -0.9511 -0.6517
 4207SOL    HW2 9345   0.326   1.708   5.592  0.9182 -0.6184 -0.2488
 4208SOL     OW 9346   2.350   1.137   5.435  0.2954  0.1080 -0.3786
 4208SOL    HW1 9347   2.378   1.089   5.357 -0.4010  0.6448 -0.9754
 4208SOL    HW2 9348   2.307   1.071   5.489 -0.3138 -0.0297 -1.0132
 4209SOL     OW 9349   3.245   1.546   5.143  0.7990  0.1872 -0.2536
 4209SOL    HW1 9350   3.197   1.507   5.070  1.0690  1.0685 -0.9131
 4209SOL    HW2 9351   3.256   1.474   5.205 -0.3751 -0.3143 -0.5916
 4210SOL     OW 9352   0.298   0.624   5.936 -0.0633 -0.1097  0.4923
 4210SOL    HW1 9353   0.244   0.700   5.957  0.5478  0.7691 -1.0001
 4210SOL    HW2 9354   0.339   0.601   6.020  0.3239  1.6876  0.8543
 4211SOL     OW 9355   0.021   1.373   6.609 -0.2469  0.1079 -0.3824
 4211SOL    HW1 9356   0.036   1.452   6.662 -0.5252 -0.0554 -0.0548
 4211SOL    HW2 9357  -0.069   1.349   6.629 -0.4742  0.2457 -1.2020
 4212SOL     OW 9358   3.149   0.283   7.287  0.5386 -0.3379 -0.4676
 4212SOL    HW1 9359   3.241   0.259   7.275  0.5754 -1.2441  1.2808
 4212SOL    HW2 9360   3.150   0.354   7.350  0.0018 -1.4925  0.9122
 4213SOL     OW 9361   3.599   2.343   6.005 -0.1359  0.5098  0.5852
 4213SOL    HW1 9362   3.537   2.394   6.056  0.5356  1.4954  0.4535
 4213SOL    HW2 9363   3.550   2.265   5.977 -0.2994 -0.4597  3.3280
 4214SOL     OW 9364   3.180   2.061   5.511  0.0503  0.6288 -0.4978
 4214SOL    HW1 9365   3.085   2.058   5.524  0.1708 -2.0786  0.2885
 4214SOL    HW2 9366   3.217   2.038   5.596  1.4335  1.0641 -0.9426
 4215SOL     OW 9367   2.371   3.543   3.959 -0.1179 -0.0417 -0.4574
 4215SOL    HW1 9368   2.354   3.552   4.053 -0.2653  1.2301 -0.5964
 4215SOL    HW2 9369   2.432   3.469   3.953  1.2986  0.9755  0.7879
 4216SOL     OW 9370   2.872   0.924   6.319  0.2343 -0.0552  0.0174
 4216SOL    HW1 9371   2.819   0.850   6.289 -0.0877  0.0190  0.3881
 4216SOL    HW2 9372   2.916   0.955   6.240 -1.2611  0.6805 -0.5696
 4217SOL     OW 9373   3.671   2.220   4.995  0.2446  0.6761  0.0969
 4217SOL    HW1 9374   3.589   2.242   5.041  0.7268 -0.6979  1.7317
 4217SOL    HW2 9375   3.645   2.152   4.933  0.1258  0.2033  0.6482
 4218SOL     OW 9376   3.822   1.284   5.929 -0.2835 -0.3581 -0.6582
 4218SOL    HW1 9377   3.778   1.299   5.846 -0.5010 -2.4023 -0.9581
 4218SOL    HW2 9378   3.914   1.305   5.912 -0.2389 -1.2349 -1.5784
 4219SOL     OW 9379   3.233   1.956   5.229  0.0924  0.4291  0.0913
 4219SOL    HW1 9380   3.323   1.974   5.257 -0.5401  2.1496  1.2247
 4219SOL    HW2 9381   3.187   1.934   5.310 -0.8420  1.1835 -0.2091
 4220SOL     OW 9382   0.051   0.115   3.202  0.3460  0.7632 -0.0582
 4220SOL    HW1 9383   0.000   0.094   3.124 -1.2612  0.6067  0.9752
 4220SOL    HW2 9384   0.101   0.035   3.220 -0.3194  0.3200 -0.1511
 4221SOL     OW 9385   2.546   1.276   7.714  0.4170  0.1013 -0.2608
 4221SOL    HW1 9386   2.502   1.200   7.751 -2.2446  1.5857 -0.1390
 4221SOL    HW2 9387   2.484   1.348   7.726  2.2631  2.0246 -1.5674
 4222SOL     OW 9388   3.492   1.814   6.978 -0.6236 -0.0883  0.1081
 4222SOL    HW1 9389   3.449   1.869   7.044  1.5142  3.2639 -1.0279
 4222SOL    HW2 9390   3.586   1.826   6.994  0.0029 -3.1675 -0.5649
 4223SOL     OW 9391   2.200   1.168   7.500  0.1068 -0.5730  0.2984
 4223SOL    HW1 9392   2.187   1.227   7.426 -0.2621 -1.1453 -0.0992
 4223SOL    HW2 9393   2.188   1.223   7.577 -1.2394 -0.3376 -0.0639
 4224SOL     OW 9394   4.149   4.164   5.083  0.2762 -0.0300  0.4686
 4224SOL    HW1 9395   4.095   4.132   5.156 -0.0129  2.7070  1.5758
 4224SOL    HW2 9396   4.180   4.250   5.112  1.4397  0.4939 -2.0488
 4225SOL     OW 9397   0.472   4.257   5.213  0.0417 -0.2751 -0.7089
 4225SOL    HW1 9398   0.554   4.235   5.169  1.0136  2.8585 -0.7301
 4225SOL    HW2 9399   0.444   4.339   5.172 -0.5308  1.2911  2.4801
 4226SOL     OW 9400   2.753   1.971   4.395  0.4301 -0.6212 -0.2999
 4226SOL    HW1 9401   2.702   1.895   4.422  1.9850 -1.3955  0.6006
 4226SOL    HW2 9402   2.782   2.011   4.477  2.7226 -1.2634 -0.7172
 4227SOL     OW 9403   3.403   1.344   4.678  0.0716  0.2609  0.3893
 4227SOL    HW1 9404   3.420   1.435   4.700 -2.2055  1.2565 -1.4708
 4227SOL    HW2 9405   3.355   1.309   4.753  1.6012  0.2965  1.4366
 4228SOL     OW 9406   2.069   2.963   5.087 -0.3470  0.6132  0.5146
 4228SOL    HW1 9407   2.101   3.054   5.081 -0.6803  0.7236  0.3767
 4228SOL    HW2 9408   2.117   2.917   5.019 -1.9499  1.2279 -1.1230
 4229SOL     OW 9409   2.646   4.006   4.036 -0.0164  0.7711 -0.7471
 4229SOL    HW1 9410   2.631   3.937   3.972 -0.1196  1.9064 -1.9792
 4229SOL    HW2 9411   2.724   3.977   4.085  1.3291  0.8433 -2.7433
 4230SOL     OW 9412   2.063   1.359   7.688 -0.3195 -0.0548 -0.2241
 4230SOL    HW1 9413   2.027   1.271   7.700 -1.1609  0.5466  2.4141
 4230SOL    HW2 9414   1.988   1.411   7.661  0.1958 -0.1361 -1.8645
 4231SOL     OW 9415   1.723   0.515   7.391 -0.0663 -0.3198  0.0780
 4231SOL    HW1 9416   1.634   0.479   7.389 -0.8120  1.3943  0.7646
 4231SOL    HW2 9417   1.726   0.574   7.316 -1.0168  2.8237  2.2873
 4232SOL     OW 9418   3.462   0.181   5.782 -0.6807  0.5629  0.0657
 4232SOL    HW1 9419   3.544   0.141   5.813 -0.5142  0.5623 -0.3661
 4232SOL    HW2 9420   3.420   0.112   5.731 -0.4692  0.8782 -0.5454
 4233SOL     OW 9421   3.077   3.773   6.144  0.0136  0.2617 -0.2099
 4233SOL    HW1 9422   3.134   3.747   6.216  0.1680 -0.1874 -0.4901
 4233SOL    HW2 9423   3.112   3.856   6.114  0.6898 -0.1420 -0.5589
 4234SOL     OW 9424   3.390   3.462   5.913 -0.5057  0.6244  0.0906
 4234SOL    HW1 9425   3.453   3.528   5.941 -1.1311  0.8224  1.0892
 4234SOL    HW2 9426   3.307   3.509   5.909 -1.0472 -0.1810  1.2685
 4235SOL     OW 9427   2.633   0.622   6.324 -0.1696  0.8101 -0.2913
 4235SOL    HW1 9428   2.590   0.694   6.277 -3.3095 -1.0114 -0.5039
 4235SOL    HW2 9429   2.623   0.547   6.266 -2.8939 -1.2133  2.4842
 4236SOL     OW 9430   2.832   3.212   5.040  0.2918  0.4246  0.1259
 4236SOL    HW1 9431   2.888   3.239   5.112 -0.3553  2.3764 -0.0425
 4236SOL    HW2 9432   2.744   3.213   5.076  0.0811  0.1992 -0.3752
 4237SOL     OW 9433   2.866   1.158   6.013 -0.1673 -0.3123  0.0208
 4237SOL    HW1 9434   2.888   1.187   5.924 -0.7743 -0.4298 -0.1675
 4237SOL    HW2 9435   2.909   1.072   6.021 -0.4022 -0.4603 -0.2837
 4238SOL     OW 9436   3.111   2.008   7.422 -0.1761  0.1273  0.0034
 4238SOL    HW1 9437   3.046   1.942   7.445 -1.0365  1.1226  0.4776
 4238SOL    HW2 9438   3.141   1.982   7.335 -1.0879 -0.4333 -0.1594
 4239SOL     OW 9439   2.454   0.791   7.027 -0.2132 -0.1100 -0.0460
 4239SOL    HW1 9440   2.546   0.801   7.001 -0.7410 -0.1163 -2.0730
 4239SOL    HW2 9441   2.419   0.880   7.027  0.3469  0.2226  3.2415
 4240SOL     OW 9442   3.047   1.568   7.146  0.1331  0.0700 -0.0182
 4240SOL    HW1 9443   3.068   1.496   7.206  1.7616  0.4653 -0.0605
 4240SOL    HW2 9444   3.109   1.557   7.074 -0.7913  0.4946 -0.8977
 4241SOL     OW 9445   3.856   0.669   7.443  0.1723 -0.1645  0.1894
 4241SOL    HW1 9446   3.946   0.638   7.443 -0.1407 -1.1000  0.6030
 4241SOL    HW2 9447   3.821   0.644   7.357 -0.0607 -0.9373  0.4982
 4242SOL     OW 9448   2.941   0.727   7.065  0.2742  0.0985 -0.9124
 4242SOL    HW1 9449   2.994   0.789   7.015 -2.0098  2.2784 -0.8525
 4242SOL    HW2 9450   2.902   0.780   7.134 -0.8253 -1.7147 -0.0798
 4243SOL     OW 9451   1.859   1.748   7.391 -0.6010 -0.3891  0.4008
 4243SOL    HW1 9452   1.880   1.696   7.468 -1.2714 -0.5632  0.4791
 4243SOL    HW2 9453   1.814   1.687   7.332 -0.0066 -0.2819 -0.1695
 4244SOL     OW 9454   2.466   0.366   5.269 -0.4458  0.5592  0.2271
 4244SOL    HW1 9455   2.496   0.366   5.178  2.8257  1.1463  1.1820
 4244SOL    HW2 9456   2.397   0.299   5.272  1.6550 -1.8982 -2.0110
 4245SOL     OW 9457   2.490   0.034   6.463 -0.1945 -0.4752 -0.1447
 4245SOL    HW1 9458   2.515   0.119   6.499 -0.1080 -0.6470  0.2141
 4245SOL    HW2 9459   2.422   0.053   6.399 -0.0312 -0.1169 -0.2116
 4246SOL     OW 9460   2.712   0.381   7.709  0.0036  0.1830  0.4073
 4246SOL    HW1 9461   2.619   0.398   7.725  0.4067  0.7396  2.4984
 4246SOL    HW2 9462   2.723   0.288   7.729  0.0464  0.3186  1.0325
 4247SOL     OW 9463   2.614   1.080   5.575  0.5781  0.5948 -0.0997
 4247SOL    HW1 9464   2.555   1.103   5.504  1.1790  0.5527 -0.6251
 4247SOL    HW2 9465   2.576   1.121   5.653 -0.2500  0.3783 -0.3887
 4248SOL     OW 9466   1.955   1.815   3.804 -0.8298 -0.3653  0.1815
 4248SOL    HW1 9467   1.861   1.816   3.786 -1.3329  1.9834  2.4507
 4248SOL    HW2 9468   1.988   1.894   3.761 -0.0564 -0.6409  0.2588
 4249SOL     OW 9469   1.356   0.985   6.959 -0.4735  0.0703 -0.7608
 4249SOL    HW1 9470   1.265   0.984   6.932 -0.0352 -0.5708 -2.3625
 4249SOL    HW2 9471   1.403   0.941   6.888  0.9867 -0.3321  0.3869
 4250SOL     OW 9472   3.477   2.477   6.714  0.3190 -0.0514  0.1055
 4250SOL    HW1 9473   3.565   2.443   6.729  0.1182 -0.2313  0.9456
 4250SOL    HW2 9474   3.489   2.550   6.653  0.9900 -0.3529 -0.1357
 4251SOL     OW 9475   2.484   2.012   4.972 -0.8737 -0.6460 -0.0764
 4251SOL    HW1 9476   2.515   1.921   4.965 -1.3853 -0.9172  1.0026
 4251SOL    HW2 9477   2.400   2.012   4.926 -0.1830 -0.3411 -1.3977
 4252SOL     OW 9478   3.382   3.782   6.556  0.5947  0.4197 -0.2455
 4252SOL    HW1 9479   3.395   3.703   6.609 -1.7680 -0.7143 -1.2220
 4252SOL    HW2 9480   3.390   3.854   6.619  0.4566 -0.7364  1.1402
 4253SOL     OW 9481   3.128   2.686   7.421 -0.6123 -0.3115  0.0689
 4253SOL    HW1 9482   3.196   2.737   7.465 -0.2933 -0.3866 -0.3345
 4253SOL    HW2 9483   3.122   2.724   7.333 -2.4080  0.9302  0.6784
 4254SOL     OW 9484   0.487   1.031   7.258 -0.1329  0.2767  0.1001
 4254SOL    HW1 9485   0.463   1.086   7.184  0.3406 -0.5051 -0.6480
 4254SOL    HW2 9486   0.534   0.958   7.220 -0.0300 -0.2344  1.1604
 4255SOL     OW 9487   3.567   0.485   7.668  0.1597  0.3856 -0.5352
 4255SOL    HW1 9488   3.638   0.535   7.707  0.0338 -0.8211  1.3889
 4255SOL    HW2 9489   3.489   0.540   7.679  0.1877  0.2074  0.7063
 4256SOL     OW 9490   2.158   0.152   6.718 -0.6101 -0.0266 -0.3786
 4256SOL    HW1 9491   2.113   0.074   6.752  0.5736 -0.8232 -0.5690
 4256SOL    HW2 9492   2.249   0.140   6.745 -0.6630  2.0827  0.9302
 4257SOL     OW 9493   3.748   0.066   5.833 -0.0983 -0.9596 -0.4352
 4257SOL    HW1 9494   3.789   0.113   5.760 -0.0211 -0.9847 -0.4081
 4257SOL    HW2 9495   3.820   0.018   5.874  0.8921  2.5595  2.5064
 4258SOL     OW 9496   3.904   0.547   7.185 -0.0218  0.2136  0.1600
 4258SOL    HW1 9497   3.994   0.578   7.193 -0.1380  0.2013  2.0737
 4258SOL    HW2 9498   3.911   0.465   7.136  1.1816 -0.3857  1.2636
 4259SOL     OW 9499   2.802   2.278   5.923  0.1960  0.0050  0.4892
 4259SOL    HW1 9500   2.739   2.249   5.857  1.7997 -0.9395 -0.7357
 4259SOL    HW2 9501   2.825   2.367   5.897  0.6951 -0.3036 -0.1548
 4260SOL     OW 9502   2.365   3.345   6.949  0.3686 -0.2409  0.4847
 4260SOL    HW1 9503   2.272   3.330   6.933 -0.0128  1.7447  0.6325
 4260SOL    HW2 9504   2.367   3.400   7.027  1.6897 -0.3835  0.5726
 4261SOL     OW 9505   2.277   1.394   6.877  0.3196 -0.5348 -0.5092
 4261SOL    HW1 9506   2.255   1.484   6.854  1.0668 -0.0499  0.5813
 4261SOL    HW2 9507   2.240   1.341   6.807 -0.7572  0.5586 -0.7844
 4262SOL     OW 9508   2.148   1.389   6.543 -0.0668  0.1301  0.0841
 4262SOL    HW1 9509   2.123   1.430   6.625  1.3118  0.3527  0.4142
 4262SOL    HW2 9510   2.191   1.307   6.569 -2.5365 -1.4695 -0.5463
 4263SOL     OW 9511   3.415   0.727   6.213  0.1713 -0.6582  0.2758
 4263SOL    HW1 9512   3.441   0.805   6.165 -0.8623 -1.1895 -1.2394
 4263SOL    HW2 9513   3.429   0.749   6.305 -1.4802  1.8676  0.0159
 4264SOL     OW 9514   3.484   4.123   7.166 -0.2679 -0.3205 -0.2485
 4264SOL    HW1 9515   3.442   4.038   7.184  1.1697 -1.2920 -1.2830
 4264SOL    HW2 9516   3.420   4.171   7.114 -0.6334 -1.2430 -0.6681
 4265SOL     OW 9517   3.564   0.820   7.479  0.0849 -0.0741  0.1993
 4265SOL    HW1 9518   3.636   0.762   7.504  0.7313  0.5494 -0.1479
 4265SOL    HW2 9519   3.528   0.782   7.400 -1.5100 -1.6700  1.6180
 4266SOL     OW 9520   3.919   0.909   6.627  0.1017 -0.8793  0.2353
 4266SOL    HW1 9521   3.944   0.879   6.714 -0.2489 -0.1589  0.5975
 4266SOL    HW2 9522   3.981   0.979   6.607 -1.5331  0.9584  1.1617
 4267SOL     OW 9523   2.226   0.129   4.145  0.0825  0.2954  0.1482
 4267SOL    HW1 9524   2.282   0.062   4.105 -0.0776  0.6881 -0.7658
 4267SOL    HW2 9525   2.169   0.080   4.204 -1.2502 -0.6794 -1.8303
 4268SOL     OW 9526   0.991   1.365   7.198 -0.0132 -0.0031  0.1697
 4268SOL    HW1 9527   0.933   1.351   7.273 -1.5743 -0.2768 -1.0244
 4268SOL    HW2 9528   0.963   1.299   7.134  0.4672  0.9938 -1.1070
 4269SOL     OW 9529   2.727   0.114   6.860  0.2024 -0.2616  0.0371
 4269SOL    HW1 9530   2.739   0.110   6.955  1.4391  0.3488 -0.0817
 4269SOL    HW2 9531   2.791   0.178   6.830 -1.5879  1.1724 -0.9806
 4270SOL     OW 9532   3.252   0.593   6.741  0.5843 -0.0151  0.4422
 4270SOL    HW1 9533   3.186   0.628   6.801  0.8992 -0.6066  1.1424
 4270SOL    HW2 9534   3.334   0.595   6.791  0.7401 -1.0968  0.2578
 4271SOL     OW 9535   3.044   0.854   5.830  0.2974 -0.3116  0.0834
 4271SOL    HW1 9536   2.996   0.774   5.809  0.0177 -0.0964 -0.1231
 4271SOL    HW2 9537   3.131   0.825   5.854  0.2993 -0.6571 -0.3223
 4272SOL     OW 9538   1.758   4.025   6.238 -0.4484  0.3679  0.4077
 4272SOL    HW1 9539   1.684   4.081   6.263 -2.0015 -1.0614 -0.6964
 4272SOL    HW2 9540   1.831   4.056   6.291 -2.2192  0.8495  2.7314
 4273SOL     OW 9541   1.157   2.845   5.910  0.6480 -0.2692 -0.1191
 4273SOL    HW1 9542   1.177   2.756   5.879  2.1688  0.1408 -0.4201
 4273SOL    HW2 9543   1.223   2.900   5.868  0.6768  0.7911  1.2343
 4274SOL     OW 9544   1.433   2.169   6.476  0.6146  0.0136  0.4306
 4274SOL    HW1 9545   1.445   2.152   6.569  1.0249 -2.0448  0.0420
 4274SOL    HW2 9546   1.507   2.226   6.453  1.4770 -0.8190  1.0435
 4275SOL     OW 9547   0.883   0.902   7.154 -0.5046 -0.4315  0.1984
 4275SOL    HW1 9548   0.934   0.843   7.099  0.6880  0.6556  0.1099
 4275SOL    HW2 9549   0.792   0.874   7.140 -0.2006 -0.5477 -1.8940
 4276SOL     OW 9550   2.430   0.338   7.680 -0.1900  0.4933 -0.4495
 4276SOL    HW1 9551   2.419   0.390   7.601  0.7951 -0.1001 -1.0055
 4276SOL    HW2 9552   2.349   0.350   7.729 -0.6723  1.1460 -1.3832
 4277SOL     OW 9553   0.893   0.763   7.707  0.2366 -0.1980  0.3951
 4277SOL    HW1 9554   0.819   0.702   7.713 -1.0934  1.2677 -0.5420
 4277SOL    HW2 9555   0.853   0.849   7.696  1.9900  1.2209  3.5446
 4278SOL     OW 9556   0.912   0.311   6.269 -0.3812  0.1823 -0.4454
 4278SOL    HW1 9557   0.860   0.324   6.349 -1.5015  0.2913 -1.1697
 4278SOL    HW2 9558   0.871   0.369   6.205  0.1676 -0.3103 -1.2538
 4279SOL     OW 9559   2.907   0.361   6.221 -0.3292  0.5484 -0.0919
 4279SOL    HW1 9560   2.897   0.319   6.136  1.1842  1.2359 -0.6364
 4279SOL    HW2 9561   2.829   0.335   6.269 -0.9242 -0.3486 -1.4710
 4280SOL     OW 9562   1.234   0.669   6.782 -0.7617  0.4393  0.1204
 4280SOL    HW1 9563   1.312   0.724   6.790  0.3493 -1.1876  1.0171
 4280SOL    HW2 9564   1.266   0.586   6.747 -1.4204 -1.4502  3.5320
 4281SOL     OW 9565   2.170   0.212   7.709  0.1725  0.4901  0.0905
 4281SOL    HW1 9566   2.159   0.222   7.615 -0.0904  0.4463  0.1167
 4281SOL    HW2 9567   2.243   0.150   7.719  0.9537  1.3550 -0.0800
 4282SOL     OW 9568   3.470   0.361   7.376  0.2283 -0.4413  0.1084
 4282SOL    HW1 9569   3.521   0.352   7.456 -0.0536  0.5569  0.4124
 4282SOL    HW2 9570   3.413   0.436   7.392  1.4065  0.9188 -1.6836
 4283SOL     OW 9571   0.882   3.949   6.311 -0.3555 -0.3264  0.4175
 4283SOL    HW1 9572   0.802   3.980   6.354  0.2287  0.5219  0.9352
 4283SOL    HW2 9573   0.911   3.874   6.363 -1.4985 -1.4720 -0.5360
 4284SOL     OW 9574   1.972   0.208   6.528 -0.1604 -0.4136  0.5394
 4284SOL    HW1 9575   2.032   0.201   6.601  1.1364 -1.0461 -0.5434
 4284SOL    HW2 9576   1.995   0.290   6.485  1.4255 -1.6278 -1.0900
 4285SOL     OW 9577   3.575   3.953   6.903 -0.1205 -0.0133 -0.3408
 4285SOL    HW1 9578   3.496   3.916   6.861 -0.3007 -2.2020  1.6936
 4285SOL    HW2 9579   3.645   3.894   6.877  0.1047 -0.3024  0.8577
 4286SOL     OW 9580   2.947   1.733   5.434 -0.4542 -0.4477 -0.0571
 4286SOL    HW1 9581   2.858   1.751   5.463 -0.2442  0.2559  0.1822
 4286SOL    HW2 9582   3.003   1.776   5.500  0.0458 -0.0073 -0.7513
 4287SOL     OW 9583   3.191   4.056   5.853 -0.7322  0.3624  0.3500
 4287SOL    HW1 9584   3.228   4.002   5.784 -3.2796 -1.1305  0.0191
 4287SOL    HW2 9585   3.204   4.006   5.934 -0.2382  0.8019  0.5520
 4288SOL     OW 9586   3.942   1.233   5.023  0.6042 -0.5098  0.2581
 4288SOL    HW1 9587   4.003   1.194   5.086  0.1800 -0.4202  0.7300
 4288SOL    HW2 9588   3.919   1.161   4.965  1.2912 -0.5030 -0.0305
 4289SOL     OW 9589   4.095   0.243   7.278  0.2066 -0.3574 -0.5622
 4289SOL    HW1 9590   4.062   0.154   7.288  0.7282 -0.6512 -1.3665
 4289SOL    HW2 9591   4.045   0.280   7.205  0.9947 -0.5001 -1.1936
 4290SOL     OW 9592   3.646   1.378   7.181  0.3585 -0.1109  0.5087
 4290SOL    HW1 9593   3.646   1.327   7.100  0.7135 -0.1894  0.5555
 4290SOL    HW2 9594   3.673   1.315   7.248  1.6392  0.3241  0.4406
 4291SOL     OW 9595   2.937   0.539   5.813  0.5105  0.0188  0.1107
 4291SOL    HW1 9596   2.901   0.455   5.783  0.7252 -0.5317  1.3208
 4291SOL    HW2 9597   3.029   0.535   5.789  0.1701  0.6883 -1.4248
 4292SOL     OW 9598   1.816   1.512   5.293  0.4375 -0.1530  0.2410
 4292SOL    HW1 9599   1.771   1.518   5.378  1.5865  1.3207  0.8057
 4292SOL    HW2 9600   1.795   1.595   5.250  1.4406 -0.0549 -0.0785
 4293SOL     OW 9601   0.087   2.530   6.088 -0.3613  0.0419  0.1521
 4293SOL    HW1 9602   0.162   2.567   6.041 -1.2645  0.8164 -0.7325
 4293SOL    HW2 9603   0.111   2.536   6.180  1.0135 -0.5246 -0.1452
 4294SOL     OW 9604   1.010   3.621   5.119 -0.6513  0.3732  0.4623
 4294SOL    HW1 9605   1.054   3.681   5.179  0.9788  0.0930 -0.4052
 4294SOL    HW2 9606   1.081   3.580   5.069 -1.8157 -1.1938  0.0176
 4295SOL     OW 9607   3.271   3.091   5.752 -0.2258  0.2086 -0.1463
 4295SOL    HW1 9608   3.362   3.106   5.728 -0.8879  3.6758 -1.0698
 4295SOL    HW2 9609   3.261   3.131   5.839 -1.1392  1.2645 -0.7041
 4296SOL     OW 9610   2.875   0.971   7.177  0.2500  0.8714  0.4133
 4296SOL    HW1 9611   2.814   1.006   7.112 -0.6060 -0.4836  0.4612
 4296SOL    HW2 9612   2.834   0.991   7.261 -0.5517 -0.7044  0.4318
 4297SOL     OW 9613   3.623   1.500   6.691  0.1121  0.0016 -0.0709
 4297SOL    HW1 9614   3.556   1.476   6.627  0.5676 -1.4413 -0.0450
 4297SOL    HW2 9615   3.662   1.580   6.656 -0.1247 -0.3748 -1.2251
 4298SOL     OW 9616   2.269   0.629   5.289  0.6071  0.4323 -0.2128
 4298SOL    HW1 9617   2.247   0.650   5.198  0.8946 -1.1369 -0.6695
 4298SOL    HW2 9618   2.327   0.553   5.283 -0.5944 -0.6650  1.3478
 4299SOL     OW 9619   2.742   2.432   7.483 -0.0437 -0.6545  0.0586
 4299SOL    HW1 9620   2.823   2.381   7.483 -0.0812 -0.7138  0.2335
 4299SOL    HW2 9621   2.767   2.517   7.447 -0.1231 -1.0192 -0.8907
 4300SOL     OW 9622   2.944   4.140   5.118  0.5655 -0.2139 -0.5536
 4300SOL    HW1 9623   2.922   4.227   5.084  0.8060  0.0030 -0.1685
 4300SOL    HW2 9624   2.961   4.087   5.040  2.1125  0.5379 -0.7640
 4301SOL     OW 9625   2.385   0.379   5.904  0.3199  0.2466 -0.2176
 4301SOL    HW1 9626   2.411   0.416   5.820  1.4979  1.0089  0.4568
 4301SOL    HW2 9627   2.292   0.400   5.911 -0.0470 -0.6777 -1.7367
 4302SOL     OW 9628   1.627   0.093   7.185  0.3139  0.1782 -0.7067
 4302SOL    HW1 9629   1.548   0.070   7.235 -0.2370  1.8943 -0.7340
 4302SOL    HW2 9630   1.673   0.010   7.175 -0.6249 -0.5807  0.8008
 4303SOL     OW 9631   3.501   1.125   7.118 -0.0883  0.0648  0.4143
 4303SOL    HW1 9632   3.437   1.056   7.135  0.1335 -0.1138  0.5340
 4303SOL    HW2 9633   3.452   1.193   7.072  0.3214 -1.5103 -2.6473
 4304SOL     OW 9634   0.609   0.344   5.856  0.2797  0.1354  0.2916
 4304SOL    HW1 9635   0.661   0.297   5.790 -1.2244  0.0578 -0.8937
 4304SOL    HW2 9636   0.549   0.278   5.890  0.0097  0.5539  0.6281
 4305SOL     OW 9637   0.826   1.050   4.794 -0.0895  0.4642  0.4386
 4305SOL    HW1 9638   0.855   1.054   4.885  2.4400  1.4840 -0.3508
 4305SOL    HW2 9639   0.813   1.141   4.768  1.2238  0.3328 -0.7946
 4306SOL     OW 9640   3.290   3.878   6.811  0.1676  0.4344  0.3551
 4306SOL    HW1 9641   3.240   3.818   6.755 -1.6429  1.4976  0.7439
 4306SOL    HW2 9642   3.237   3.958   6.814  0.9514  0.9329  2.3949
 4307SOL     OW 9643   1.261   0.116   5.403  0.0653 -0.3555 -0.3822
 4307SOL    HW1 9644   1.207   0.073   5.469 -0.9822  0.1743 -0.8751
 4307SOL    HW2 9645   1.292   0.196   5.446 -0.3686 -0.1615 -0.4267
 4308SOL     OW 9646   0.778   3.022   3.470 -0.3404 -0.4879  0.2962
 4308SOL    HW1 9647   0.715   3.016   3.542  1.8745  1.1535  2.5185
 4308SOL    HW2 9648   0.745   3.093   3.414  0.0530  1.1771  2.0840
 4309SOL     OW 9649   3.581   2.536   4.616  0.9472 -0.2853 -0.3126
 4309SOL    HW1 9650   3.586   2.631   4.621 -1.9241  0.0927 -2.5324
 4309SOL    HW2 9651   3.541   2.509   4.699  2.8294  0.2069  0.8373
 4310SOL     OW 9652   1.348   1.236   4.720 -0.0416  0.1249 -0.2601
 4310SOL    HW1 9653   1.377   1.188   4.642  1.6788  0.2727  0.2593
 4310SOL    HW2 9654   1.312   1.168   4.777  1.4026 -0.4374  0.0300
 4311SOL     OW 9655   4.116   1.844   7.223  0.3291  0.3836  0.2968
 4311SOL    HW1 9656   4.134   1.803   7.308  2.3262 -0.9788 -0.7049
 4311SOL    HW2 9657   4.030   1.811   7.199  0.7469 -1.1292  0.7537
 4312SOL     OW 9658   2.533   0.135   7.384 -0.4265  0.5042 -0.6442
 4312SOL    HW1 9659   2.535   0.085   7.302 -2.3243  0.6599 -0.8281
 4312SOL    HW2 9660   2.528   0.226   7.356 -0.4148  0.5966 -0.3447
 4313SOL     OW 9661   3.869   1.809   7.123  0.3460  0.3841 -0.1370
 4313SOL    HW1 9662   3.811   1.883   7.142  0.0159 -0.3985  2.3147
 4313SOL    HW2 9663   3.830   1.766   7.047  0.0383  2.1919 -1.0311
 4314SOL     OW 9664   2.779   0.103   7.125 -1.1812 -0.2830 -0.1984
 4314SOL    HW1 9665   2.809   0.163   7.193  0.2130 -0.8873 -0.2638
 4314SOL    HW2 9666   2.697   0.067   7.160 -1.1257  0.3376  0.6071
 4315SOL     OW 9667   4.040   3.504   6.858  0.1796  0.1685  0.5603
 4315SOL    HW1 9668   3.970   3.482   6.920  0.1224  1.0662  0.8219
 4315SOL    HW2 9669   4.090   3.572   6.902 -0.2664  1.3274 -0.6499
 4316SOL     OW 9670   2.389   1.138   5.000  0.1106  0.1595 -0.2343
 4316SOL    HW1 9671   2.333   1.073   5.042 -1.4457  1.2071 -0.6223
 4316SOL    HW2 9672   2.394   1.111   4.908 -0.0677  0.2681 -0.2765
 4317SOL     OW 9673   1.475   0.370   7.384  0.1598  0.1823 -0.6270
 4317SOL    HW1 9674   1.462   0.275   7.382  0.5436  0.1251 -2.8258
 4317SOL    HW2 9675   1.388   0.405   7.405 -0.2249 -0.6127 -0.8408
 4318SOL     OW 9676   3.208   0.481   7.657  0.2748  0.1561 -0.1149
 4318SOL    HW1 9677   3.225   0.491   7.564  1.4284 -2.0313 -0.2034
 4318SOL    HW2 9678   3.240   0.393   7.678 -4.5503 -1.6048  1.2670
 4319SOL     OW 9679   2.442   0.304   6.509  0.0827  0.3690 -0.7590
 4319SOL    HW1 9680   2.454   0.358   6.587  1.9886  0.5680 -1.1262
 4319SOL    HW2 9681   2.349   0.309   6.490 -0.9137 -1.4725  2.7411
 4320SOL     OW 9682   3.709   0.548   5.071  0.1030 -0.1352  0.1801
 4320SOL    HW1 9683   3.617   0.541   5.043 -0.3252 -0.3453  1.5780
 4320SOL    HW2 9684   3.758   0.553   4.989 -1.1820  0.3899 -0.6012
 4321SOL     OW 9685   2.269   0.657   6.863  0.1427 -0.0715  0.0960
 4321SOL    HW1 9686   2.296   0.678   6.773 -0.8461 -0.1533 -0.2370
 4321SOL    HW2 9687   2.338   0.693   6.918  1.0997 -0.6039 -0.7265
 4322SOL     OW 9688   1.795   1.985   5.706 -0.3596  0.0776  0.6974
 4322SOL    HW1 9689   1.848   1.936   5.769  0.9897  4.0244  2.9366
 4322SOL    HW2 9690   1.730   2.030   5.759 -0.9078  1.4703 -1.0744
 4323SOL     OW 9691   4.064   1.392   6.626 -0.3175  0.5381 -0.3589
 4323SOL    HW1 9692   4.045   1.476   6.584  1.2989  1.4377  0.6279
 4323SOL    HW2 9693   4.006   1.389   6.702  1.9150  2.3882  1.5445
 4324SOL     OW 9694   2.896   0.225   7.353 -0.6044 -0.3118 -0.4459
 4324SOL    HW1 9695   2.898   0.142   7.400  0.1480 -0.3580 -0.5541
 4324SOL    HW2 9696   2.988   0.250   7.343 -0.8387  1.7314  1.6721
 4325SOL     OW 9697   0.811   0.281   6.541 -0.4234  0.0622 -0.0537
 4325SOL    HW1 9698   0.769   0.330   6.611 -0.4370  1.2687 -0.8744
 4325SOL    HW2 9699   0.899   0.317   6.535  0.1855 -1.2567  0.4966
 4326SOL     OW 9700   4.296   2.536   7.081  0.4231  0.5363  0.2464
 4326SOL    HW1 9701   4.342   2.616   7.057  0.9735 -0.2446 -1.4190
 4326SOL    HW2 9702   4.360   2.486   7.131  0.8317  0.1981 -0.5984
 4327SOL     OW 9703   2.762   3.186   6.752 -0.0425 -0.0361 -0.3990
 4327SOL    HW1 9704   2.677   3.203   6.713 -0.4097 -2.5254 -0.8681
 4327SOL    HW2 9705   2.816   3.153   6.680  0.4214 -1.1432  0.4029
 4328SOL     OW 9706   0.631   0.590   6.609  0.5537  0.3652 -0.5772
 4328SOL    HW1 9707   0.613   0.498   6.587  0.1120  0.1991  0.4317
 4328SOL    HW2 9708   0.548   0.623   6.644  0.7071  1.1618 -0.9380
 4329SOL     OW 9709   0.863   1.176   7.065  0.5220 -0.0820  0.1084
 4329SOL    HW1 9710   0.877   1.084   7.087 -1.5437 -0.6467 -0.7181
 4329SOL    HW2 9711   0.805   1.175   6.990  0.5261  1.9150  0.0094
 4330SOL     OW 9712   0.584   4.298   6.921 -0.3880 -0.5809 -0.0125
 4330SOL    HW1 9713   0.617   4.237   6.854 -0.6607  0.2155 -0.8978
 4330SOL    HW2 9714   0.632   4.379   6.905 -0.0778 -0.5296  1.1167
 4331SOL     OW 9715   2.026   3.221   4.547  0.0024  0.0121  0.2946
 4331SOL    HW1 9716   2.107   3.185   4.510 -0.1921 -1.1401  0.9738
 4331SOL    HW2 9717   1.963   3.215   4.475 -0.0337 -1.0295  0.4055
 4332SOL     OW 9718   2.185   0.556   5.049 -0.5162  0.1006 -0.0129
 4332SOL    HW1 9719   2.124   0.598   4.988 -0.6091  0.2581  0.1835
 4332SOL    HW2 9720   2.252   0.516   4.994 -1.0778 -0.5180 -0.2523
 4333SOL     OW 9721   2.490   2.872   5.457  0.2747 -0.3865 -0.7394
 4333SOL    HW1 9722   2.551   2.876   5.531  0.8519  1.4647 -1.2641
 4333SOL    HW2 9723   2.414   2.826   5.491  0.3142  0.8560  1.2006
 4334SOL     OW 9724   2.562   0.423   6.099  0.0912  0.4043  0.0132
 4334SOL    HW1 9725   2.495   0.413   6.032  1.3166 -0.7813 -1.0820
 4334SOL    HW2 9726   2.633   0.472   6.056  1.0677 -0.7275  0.2586
 4335SOL     OW 9727   2.803   4.206   6.729  0.1683  0.8628 -0.3107
 4335SOL    HW1 9728   2.758   4.285   6.759 -0.1090  1.3539 -1.9178
 4335SOL    HW2 9729   2.870   4.238   6.669  2.2193  0.0812  1.4180
 4336SOL     OW 9730   2.301   0.457   4.823  0.4289  0.0802  0.0117
 4336SOL    HW1 9731   2.224   0.403   4.808 -0.0972  0.2951  1.7184
 4336SOL    HW2 9732   2.314   0.504   4.740  0.3432 -1.8949 -1.2022
 4337SOL     OW 9733   2.429   0.280   7.020 -0.2530 -0.1213 -0.0379
 4337SOL    HW1 9734   2.466   0.312   7.102  0.2907 -0.8798  0.0218
 4337SOL    HW2 9735   2.358   0.342   7.000  1.1171  1.4610 -0.2281
 4338SOL     OW 9736   3.096   1.027   7.621 -0.0157  0.2080  0.4385
 4338SOL    HW1 9737   3.022   1.086   7.609 -0.7755 -0.1005  3.0686
 4338SOL    HW2 9738   3.066   0.962   7.685  3.1493  1.4239  3.5235
 4339SOL     OW 9739   1.723   2.358   7.090 -0.8712 -0.2460 -0.3466
 4339SOL    HW1 9740   1.668   2.312   7.153 -1.1257  0.2697 -0.1826
 4339SOL    HW2 9741   1.777   2.417   7.144 -2.6591  1.8501 -0.7166
 4340SOL     OW 9742   3.303   1.196   7.692 -0.1212  0.2577  0.4445
 4340SOL    HW1 9743   3.357   1.124   7.658  0.3093  0.6419  0.3076
 4340SOL    HW2 9744   3.214   1.161   7.692  0.1159 -0.3534  0.5942
 4341SOL     OW 9745   1.926   2.042   6.830  0.2361  0.4153 -0.6511
 4341SOL    HW1 9746   1.921   1.946   6.821 -0.3643  0.4776 -1.0782
 4341SOL    HW2 9747   1.890   2.059   6.916  0.3347  0.2559 -0.5769
 4342SOL     OW 9748   2.973   2.074   7.696 -0.1598 -0.0596  0.3365
 4342SOL    HW1 9749   3.004   2.153   7.652 -0.4075 -0.4152 -0.4952
 4342SOL    HW2 9750   3.045   2.012   7.688  0.2022  0.2148  1.3710
 4343SOL     OW 9751   2.573   3.731   7.694 -0.1357  0.0678  0.2139
 4343SOL    HW1 9752   2.594   3.765   7.781 -2.3050  3.1870 -0.3130
 4343SOL    HW2 9753   2.490   3.684   7.706 -0.9004  1.2623 -0.2634
 4344SOL     OW 9754   2.789   2.313   6.381 -0.3272  0.6346 -0.2430
 4344SOL    HW1 9755   2.837   2.305   6.299 -1.6215  2.0408 -1.2121
 4344SOL    HW2 9756   2.746   2.228   6.393  0.6738  0.0874 -0.4797
 4345SOL     OW 9757   3.256   1.656   7.709 -0.2881 -0.1243 -0.4658
 4345SOL    HW1 9758   3.166   1.662   7.677 -0.8242  0.0005  1.0313
 4345SOL    HW2 9759   3.261   1.720   7.780  1.2118  0.4296 -1.0184
 4346SOL     OW 9760   1.972   1.739   6.866 -0.3005 -0.4573  0.0703
 4346SOL    HW1 9761   1.942   1.703   6.783  1.1568  0.1820 -0.7720
 4346SOL    HW2 9762   1.901   1.720   6.927 -1.8990  0.0116 -1.5528
 4347SOL     OW 9763   3.464   3.686   7.026  0.0921 -0.5488 -0.1709
 4347SOL    HW1 9764   3.558   3.680   7.009  0.2896 -0.7133  0.9450
 4347SOL    HW2 9765   3.423   3.658   6.944  1.0161 -1.4387 -0.3418
 4348SOL     OW 9766   2.477   0.598   5.730  0.0508 -1.0169 -0.3016
 4348SOL    HW1 9767   2.458   0.532   5.663  2.5184 -2.0125 -0.1264
 4348SOL    HW2 9768   2.512   0.672   5.681 -0.2078 -0.8794 -0.2802
 4349SOL     OW 9769   2.548   4.009   7.409 -0.1906 -0.6149  1.0035
 4349SOL    HW1 9770   2.520   4.071   7.476 -1.7829  1.1040 -1.0949
 4349SOL    HW2 9771   2.485   3.938   7.414 -1.0629  0.1090  0.5580
 4350SOL     OW 9772   2.254   0.085   7.083 -0.4770 -0.6250 -0.4484
 4350SOL    HW1 9773   2.188   0.152   7.066 -1.2945 -0.6494  2.1172
 4350SOL    HW2 9774   2.338   0.129   7.067 -1.0275  0.6483  0.0299
 4351SOL     OW 9775   3.492   0.879   6.883 -0.0518  0.2315  0.0976
 4351SOL    HW1 9776   3.441   0.882   6.965  2.2368  1.9138  1.6078
 4351SOL    HW2 9777   3.492   0.970   6.853  1.7846  0.2407  0.0344
 4352SOL     OW 9778   1.901   1.570   7.648 -0.1232 -0.5102  0.4264
 4352SOL    HW1 9779   1.968   1.605   7.706  0.8075  0.7775 -1.3314
 4352SOL    HW2 9780   1.819   1.607   7.680  0.5919  1.6362 -0.1107
 4353SOL     OW 9781   2.624   0.967   7.703 -0.1309 -0.1400 -0.2512
 4353SOL    HW1 9782   2.535   0.989   7.677 -0.0321 -0.0487 -0.5237
 4353SOL    HW2 9783   2.674   1.046   7.684  0.2754 -0.6575 -1.4634
 4354SOL     OW 9784   3.327   1.408   6.828 -0.7982 -0.0497  0.4285
 4354SOL    HW1 9785   3.273   1.408   6.750 -0.9650 -2.5147  0.4728
 4354SOL    HW2 9786   3.275   1.363   6.895 -0.0118  0.5108  1.4615
 4355SOL     OW 9787   3.289   0.226   7.688  0.2828 -0.5285 -0.2119
 4355SOL    HW1 9788   3.269   0.190   7.775  1.1798  0.9378  0.6453
 4355SOL    HW2 9789   3.290   0.150   7.630 -0.0942 -1.5756  1.1038
 4356SOL     OW 9790   3.453   0.239   6.443 -0.1494 -0.2282  0.2715
 4356SOL    HW1 9791   3.428   0.322   6.484  0.1444  0.3570 -0.7010
 4356SOL    HW2 9792   3.512   0.198   6.506  0.7208  0.9049  0.2197
 4357SOL     OW 9793   2.936   0.595   7.691 -0.5237  0.0649 -0.5996
 4357SOL    HW1 9794   2.867   0.548   7.737 -0.2334 -0.3540 -0.5848
 4357SOL    HW2 9795   3.017   0.551   7.718 -0.3099  0.1392 -1.1172
 4358SOL     OW 9796   2.382   1.007   7.410 -0.3640  0.7555 -0.2437
 4358SOL    HW1 9797   2.308   1.063   7.430 -0.1281  1.3969 -1.1452
 4358SOL    HW2 9798   2.449   1.066   7.376 -0.0732 -0.0498 -1.1093
 4359SOL     OW 9799   2.965   1.703   7.660 -0.7123  0.0432 -0.0095
 4359SOL    HW1 9800   2.906   1.776   7.679 -0.5080 -0.0603  1.0545
 4359SOL    HW2 9801   2.963   1.696   7.564  0.1337  2.1795 -0.2448
 4360SOL     OW 9802   1.644   1.284   6.984  0.2248  0.2188 -0.2695
 4360SOL    HW1 9803   1.648   1.347   6.913  1.2226 -0.1273 -0.5323
 4360SOL    HW2 9804   1.587   1.324   7.049 -0.2989  0.7539 -1.0471
 4361SOL     OW 9805   2.043   3.364   7.464  0.1283  0.5096 -0.3814
 4361SOL    HW1 9806   2.035   3.281   7.416  2.4267 -0.0546  0.0798
 4361SOL    HW2 9807   2.014   3.430   7.402 -1.9594 -0.6236 -0.6915
 4362SOL     OW 9808   0.295   1.260   7.447 -0.0255 -0.0540  0.2191
 4362SOL    HW1 9809   0.316   1.203   7.521  0.3170  1.1894  1.1219
 4362SOL    HW2 9810   0.218   1.220   7.407  0.7800 -1.6733  0.2111
 4363SOL     OW 9811   1.864   0.965   7.072  0.1147 -0.0519 -0.1800
 4363SOL    HW1 9812   1.932   1.000   7.015  1.1060  0.0972  1.0399
 4363SOL    HW2 9813   1.912   0.927   7.146 -1.1376  0.5509  0.9912
 4364SOL     OW 9814   2.382   0.059   7.669  0.3584  0.0777  0.4608
 4364SOL    HW1 9815   2.460   0.005   7.682 -0.2010 -0.7856  0.3751
 4364SOL    HW2 9816   2.415   0.148   7.660  1.2168 -0.0606  1.9246
 4365SOL     OW 9817   2.813   1.201   7.673  0.4815  0.2476 -0.0472
 4365SOL    HW1 9818   2.731   1.245   7.697  0.1312 -0.7940  0.6853
 4365SOL    HW2 9819   2.881   1.264   7.695 -0.0393  0.6088  0.5559
 4366SOL     OW 9820   2.642   0.719   5.005  0.7591 -0.0424 -0.2725
 4366SOL    HW1 9821   2.656   0.661   5.080 -2.4726 -1.9815 -0.9877
 4366SOL    HW2 9822   2.704   0.688   4.939 -0.0129 -1.8991 -0.1840
 4367SOL     OW 9823   2.894   0.868   7.693 -0.2305 -0.0792 -0.3415
 4367SOL    HW1 9824   2.806   0.882   7.728 -0.2862 -2.2689  0.5629
 4367SOL    HW2 9825   2.896   0.775   7.671  0.8210  0.5528 -3.4398
 4368SOL     OW 9826   0.355   0.127   7.021  0.4220  1.0298  0.0571
 4368SOL    HW1 9827   0.388   0.038   7.008  0.7158  0.8707  1.6391
 4368SOL    HW2 9828   0.261   0.120   7.004  0.4088  0.3706  0.3611
 4369SOL     OW 9829   3.420   2.140   7.668  0.2830  0.0657 -0.1690
 4369SOL    HW1 9830   3.494   2.085   7.695 -0.4328 -0.0326  1.7468
 4369SOL    HW2 9831   3.457   2.228   7.661  0.4940  0.1393  1.4307
 4370SOL     OW 9832   3.189   3.240   1.478  0.5610  0.8824 -0.2737
 4370SOL    HW1 9833   3.167   3.181   1.551  2.9190 -0.8239 -0.8278
 4370SOL    HW2 9834   3.109   3.245   1.427 -0.4932  0.3030  1.2398
 4371SOL     OW 9835   3.457   2.864   0.676  0.2055 -0.8359 -0.1309
 4371SOL    HW1 9836   3.532   2.809   0.697  1.7346  1.7073  1.6271
 4371SOL    HW2 9837   3.495   2.943   0.637 -1.4873  0.6912  1.1450
 4372SOL     OW 9838   3.000   2.247   0.690  0.2492 -0.2172 -0.1771
 4372SOL    HW1 9839   2.995   2.221   0.782 -1.8700  1.4917  0.2633
 4372SOL    HW2 9840   3.071   2.310   0.686  3.2368 -3.3152 -0.6440
 4373SOL     OW 9841   2.615   2.684   0.710  0.0290 -0.0529  0.0008
 4373SOL    HW1 9842   2.710   2.676   0.715 -0.0936 -0.8979  2.0840
 4373SOL    HW2 9843   2.584   2.595   0.701 -0.5650  0.2413 -0.9065
 4374SOL     OW 9844   2.254   1.338   2.783 -0.0661  0.2732 -0.3014
 4374SOL    HW1 9845   2.230   1.411   2.725 -1.9583 -0.0430  0.0314
 4374SOL    HW2 9846   2.171   1.301   2.811  0.8555 -1.7950 -0.1327
 4375SOL     OW 9847   2.548   2.348   0.683 -0.5470 -0.0790 -0.4389
 4375SOL    HW1 9848   2.525   2.258   0.708  0.7897 -0.3147  0.0176
 4375SOL    HW2 9849   2.463   2.392   0.671 -1.2182 -1.1648  0.1418
 4376SOL     OW 9850   3.559   0.400   2.050 -0.5278 -0.0902 -0.7063
 4376SOL    HW1 9851   3.532   0.483   2.010  1.8482  1.5794  0.8976
 4376SOL    HW2 9852   3.488   0.377   2.109 -1.3375  0.6406 -1.3633
 4377SOL     OW 9853   3.770   2.620   1.828 -0.7549 -0.5691 -0.0195
 4377SOL    HW1 9854   3.723   2.700   1.804  0.7868  0.7927  1.2560
 4377SOL    HW2 9855   3.861   2.648   1.839 -0.2260 -2.4448  0.7107
 4378SOL     OW 9856   0.452   3.489   1.029 -0.3808  0.2628  0.1307
 4378SOL    HW1 9857   0.465   3.466   1.121  0.2352  0.2151  0.0302
 4378SOL    HW2 9858   0.473   3.582   1.025  1.0813 -0.0713 -0.2556
 4379SOL     OW 9859   3.066   2.630   1.203  0.3595 -0.2909 -0.6583
 4379SOL    HW1 9860   2.975   2.660   1.193 -1.2220 -4.3319 -0.3592
 4379SOL    HW2 9861   3.103   2.637   1.115 -0.3972  0.9448 -0.8965
 4380SOL     OW 9862   3.952   2.298   0.699 -0.2039 -0.3934  0.6195
 4380SOL    HW1 9863   4.045   2.276   0.686  0.0591  0.7592  0.3997
 4380SOL    HW2 9864   3.949   2.394   0.692 -1.5506 -0.4738 -0.2399
 4381SOL     OW 9865   2.435   3.186   1.333 -0.0949 -0.4888 -0.1562
 4381SOL    HW1 9866   2.519   3.211   1.371 -0.7667  2.5876 -0.4476
 4381SOL    HW2 9867   2.392   3.134   1.402  0.2937  1.6879  1.8482
 4382SOL     OW 9868   1.828   3.460   0.704  0.4560  0.1342  0.2953
 4382SOL    HW1 9869   1.876   3.526   0.754  2.0957 -0.1205 -0.8387
 4382SOL    HW2 9870   1.897   3.405   0.667 -0.6580  0.2354 -2.0830
 4383SOL     OW 9871   2.751   2.920   0.757 -0.6299  0.1120 -0.2379
 4383SOL    HW1 9872   2.666   2.887   0.728 -0.1871  0.8100 -2.5284
 4383SOL    HW2 9873   2.814   2.852   0.730 -0.2742  0.4194 -0.1943
 4384SOL     OW 9874   3.046   1.761   1.699 -0.1768 -0.0310 -0.6241
 4384SOL    HW1 9875   3.022   1.671   1.677 -1.4465  0.1696 -0.1935
 4384SOL    HW2 9876   2.989   1.815   1.644  1.5632  0.5613 -1.9347
 4385SOL     OW 9877   3.673   2.925   1.233  0.3671 -0.1152  0.0182
 4385SOL    HW1 9878   3.678   2.983   1.157 -1.6122  2.4917  1.6704
 4385SOL    HW2 9879   3.762   2.924   1.268  1.0099 -0.2622 -1.5458
 4386SOL     OW 9880   3.842   0.124   1.843 -0.1664  0.4317 -0.1035
 4386SOL    HW1 9881   3.912   0.166   1.894  0.4106 -0.7035  0.0601
 4386SOL    HW2 9882   3.886   0.085   1.768 -0.9181  1.4598 -1.1299
 4387SOL     OW 9883   2.381   2.818   0.678 -0.3111  0.0963  0.3610
 4387SOL    HW1 9884   2.429   2.892   0.643  2.0284 -2.0451 -1.2697
 4387SOL    HW2 9885   2.448   2.756   0.707 -2.0979 -2.0058  0.3032
 4388SOL     OW 9886   2.087   1.866   1.094  0.0410 -0.0937 -0.1190
 4388SOL    HW1 9887   2.142   1.910   1.030  1.0322  1.6377  1.7987
 4388SOL    HW2 9888   2.010   1.922   1.102 -0.7465 -1.0519 -0.7904
 4389SOL     OW 9889   1.748   0.721   0.856 -0.5189  0.1454 -0.2597
 4389SOL    HW1 9890   1.657   0.693   0.867 -0.3601 -0.7359 -1.0502
 4389SOL    HW2 9891   1.783   0.721   0.945 -0.4296 -2.6552 -0.1964
 4390SOL     OW 9892   0.916   1.472   1.579  0.3123  0.8179  0.5664
 4390SOL    HW1 9893   0.971   1.402   1.613 -1.3379 -0.4948  0.6796
 4390SOL    HW2 9894   0.827   1.438   1.585 -0.3231  1.6159 -2.4168
 4391SOL     OW 9895   3.792   3.312   0.709 -0.2225  0.3168  0.2428
 4391SOL    HW1 9896   3.762   3.307   0.800  0.3618  0.4574  0.4484
 4391SOL    HW2 9897   3.772   3.226   0.673 -1.5734  0.6414  0.1424
 4392SOL     OW 9898   3.193   2.461   0.664  0.1261  0.8735 -0.1433
 4392SOL    HW1 9899   3.161   2.549   0.645 -0.0392  0.9627  0.5094
 4392SOL    HW2 9900   3.286   2.473   0.682  0.3574  0.7373 -1.2124
 4393SOL     OW 9901   2.501   3.050   0.653 -0.5542 -0.2939  0.5127
 4393SOL    HW1 9902   2.452   3.128   0.628 -0.3534  0.8580  3.2849
 4393SOL    HW2 9903   2.591   3.081   0.665 -0.3038 -1.1230  0.8833
 4394SOL     OW 9904   1.159   2.779   0.687 -0.1499 -0.1305  0.2901
 4394SOL    HW1 9905   1.184   2.732   0.767 -0.9217 -0.5820  0.2837
 4394SOL    HW2 9906   1.234   2.768   0.628  0.3143 -0.0258  0.8491
 4395SOL     OW 9907   2.611   0.002   2.086  0.1677  0.1223  0.3337
 4395SOL    HW1 9908   2.560  -0.063   2.038  0.3540  0.4774 -0.3715
 4395SOL    HW2 9909   2.690   0.014   2.033 -0.0605  1.2346  0.2002
 4396SOL     OW 9910   2.071   1.428   0.880 -0.8621 -0.2460  0.5944
 4396SOL    HW1 9911   2.034   1.513   0.902 -0.9067 -0.4549  1.3331
 4396SOL    HW2 9912   1.997   1.378   0.844 -0.6688  0.2765 -0.5940
 4397SOL     OW 9913   3.660   3.076   0.724 -0.7749 -0.4394 -0.1142
 4397SOL    HW1 9914   3.704   2.994   0.701  1.5371  0.7561 -0.3355
 4397SOL    HW2 9915   3.656   3.076   0.819 -1.7185 -1.2436 -0.1469
 4398SOL     OW 9916   3.772   3.284   1.151 -0.2181 -0.0672 -0.2063
 4398SOL    HW1 9917   3.807   3.270   1.239  0.6852  1.4562 -0.2894
 4398SOL    HW2 9918   3.761   3.379   1.144  0.2030 -0.1086 -1.9160
 4399SOL     OW 9919   2.916   2.721   0.691 -0.7260 -0.5712 -0.6859
 4399SOL    HW1 9920   3.006   2.752   0.685 -1.2383  0.8312 -1.4551
 4399SOL    HW2 9921   2.921   2.629   0.665  0.8512 -1.2692  1.7216
 4400SOL     OW 9922   3.863   3.883   1.150  0.4130 -0.7906 -0.5587
 4400SOL    HW1 9923   3.880   3.819   1.081  0.5089 -2.2384  0.7538
 4400SOL    HW2 9924   3.950   3.905   1.184  0.3351 -0.4516 -0.5739
 4401SOL     OW 9925   2.533   3.812   0.651  0.5599  0.0137 -0.4324
 4401SOL    HW1 9926   2.493   3.743   0.597 -0.9424  0.5549 -0.0372
 4401SOL    HW2 9927   2.623   3.782   0.663 -0.0655 -1.9213 -0.2173
 4402SOL     OW 9928   1.952   0.684   2.360  0.3592 -0.1406  0.3042
 4402SOL    HW1 9929   1.918   0.683   2.271  0.6540 -0.8511  0.1867
 4402SOL    HW2 9930   2.031   0.737   2.355  0.5600 -0.4586  0.0680
 4403SOL     OW 9931   4.000   3.513   1.344 -0.0383 -0.4528 -0.0762
 4403SOL    HW1 9932   4.015   3.594   1.393 -1.1350 -1.0624  1.3644
 4403SOL    HW2 9933   3.918   3.478   1.380  0.8819 -2.6790  0.0468
 4404SOL     OW 9934   3.317   3.755   1.992 -0.8330 -0.2990 -0.2592
 4404SOL    HW1 9935   3.389   3.818   1.980  0.2170 -1.6244 -1.2594
 4404SOL    HW2 9936   3.316   3.705   1.911 -0.4969 -2.7039  1.1391
 4405SOL     OW 9937   1.468   3.417   1.870 -0.4616  0.4500 -0.0078
 4405SOL    HW1 9938   1.404   3.488   1.868  3.2341  4.2294 -0.2238
 4405SOL    HW2 9939   1.509   3.420   1.783  0.7130 -1.0303  0.4561
 4406SOL     OW 9940   2.295   3.373   1.220 -0.3162 -0.2873  0.1637
 4406SOL    HW1 9941   2.344   3.304   1.265  0.8337 -0.1955 -0.8832
 4406SOL    HW2 9942   2.268   3.433   1.290  0.7311 -0.5664  0.8334
 4407SOL     OW 9943   3.385   3.584   1.783  0.7494 -0.2593  0.3497
 4407SOL    HW1 9944   3.363   3.492   1.797  1.9016 -0.5492  0.4067
 4407SOL    HW2 9945   3.401   3.591   1.689  1.1976 -0.2512  0.4237
 4408SOL     OW 9946   2.040   3.305   0.656  0.2442  0.5296  0.5699
 4408SOL    HW1 9947   2.128   3.324   0.623 -0.3855  0.3483 -1.3034
 4408SOL    HW2 9948   2.028   3.212   0.638 -0.5183  0.6644  0.3633
 4409SOL     OW 9949   2.878   3.392   0.666  0.1797 -0.6838 -0.1512
 4409SOL    HW1 9950   2.897   3.389   0.760 -1.7912  1.2802  0.3798
 4409SOL    HW2 9951   2.918   3.474   0.636 -0.1108 -0.7782 -0.8162
 4410SOL     OW 9952   2.798   2.438   0.680  0.0668  0.5544  0.4648
 4410SOL    HW1 9953   2.712   2.396   0.674  1.1589 -1.7434 -4.1024
 4410SOL    HW2 9954   2.860   2.365   0.689  1.7065  1.5697 -1.5734
 4411SOL     OW 9955   3.228   1.633   0.660 -0.2410 -0.1929 -0.3751
 4411SOL    HW1 9956   3.267   1.705   0.610  1.1319 -1.1628 -0.7602
 4411SOL    HW2 9957   3.288   1.560   0.647 -2.0680 -1.6975 -0.7530
 4412SOL     OW 9958   2.454   1.382   0.702 -0.4040  0.2755 -0.8205
 4412SOL    HW1 9959   2.483   1.292   0.686  0.3788  0.4422 -0.3877
 4412SOL    HW2 9960   2.359   1.378   0.700 -0.4026 -0.7885  0.4066
 4413SOL     OW 9961   3.215   3.187   1.085  0.2125 -0.3357 -0.1438
 4413SOL    HW1 9962   3.160   3.262   1.108 -0.9627 -0.8466 -1.1963
 4413SOL    HW2 9963   3.286   3.224   1.033 -0.1854  0.0935 -0.3868
 4414SOL     OW 9964   3.200   2.748   0.686 -0.6787 -0.4230 -0.3892
 4414SOL    HW1 9965   3.273   2.801   0.654 -2.2246  0.9690 -1.7920
 4414SOL    HW2 9966   3.180   2.785   0.773 -1.4033  1.0204 -1.1313
 4415SOL     OW 9967   3.482   2.377   2.458  0.0111 -0.0385  0.3245
 4415SOL    HW1 9968   3.389   2.374   2.479 -0.2336 -0.1377 -0.7267
 4415SOL    HW2 9969   3.522   2.315   2.519 -0.4044  1.0062  1.7150
 4416SOL     OW 9970   3.536   1.832   1.923 -0.0014  0.5795 -0.1732
 4416SOL    HW1 9971   3.466   1.825   1.858 -0.0544  0.4931 -0.1063
 4416SOL    HW2 9972   3.538   1.925   1.946 -0.3211  0.5267  0.0786
 4417SOL     OW 9973   3.497   3.188   1.190  0.3068 -0.2084  0.3215
 4417SOL    HW1 9974   3.574   3.226   1.147 -1.5194  1.5535 -1.6813
 4417SOL    HW2 9975   3.469   3.118   1.131 -0.4798  0.2000  0.1868
 4418SOL     OW 9976   4.058   3.582   2.301  0.6839  0.0674 -0.3091
 4418SOL    HW1 9977   3.987   3.559   2.241 -0.9733  1.8164  0.8703
 4418SOL    HW2 9978   4.061   3.509   2.363 -1.4064  0.7770  0.7218
 4419SOL     OW 9979   3.575   2.467   1.571 -0.3010  0.4289  0.2383
 4419SOL    HW1 9980   3.557   2.561   1.572 -0.4997  0.4349 -1.0684
 4419SOL    HW2 9981   3.506   2.428   1.623 -1.7082  0.8115 -1.2598
 4420SOL     OW 9982   2.602   1.883   0.714 -0.7300 -0.2639 -0.0983
 4420SOL    HW1 9983   2.686   1.923   0.692 -0.7258  0.2260  0.7647
 4420SOL    HW2 9984   2.601   1.801   0.665 -0.7829  0.8135 -1.9972
 4421SOL     OW 9985   1.620   2.396   2.398 -0.5646  0.4157  0.3169
 4421SOL    HW1 9986   1.560   2.433   2.334 -0.1098  0.8935  0.1619
 4421SOL    HW2 9987   1.701   2.445   2.386  0.1215 -0.7817 -0.0339
 4422SOL     OW 9988   3.425   1.661   3.571 -0.1179 -0.3492  0.0100
 4422SOL    HW1 9989   3.343   1.616   3.591 -1.6568  2.0993 -0.3529
 4422SOL    HW2 9990   3.422   1.676   3.477 -0.8062  2.4226  0.3927
 4423SOL     OW 9991   0.513   1.596   1.372 -0.3838  0.2325  0.3719
 4423SOL    HW1 9992   0.474   1.583   1.458  3.1338  0.5439  2.2122
 4423SOL    HW2 9993   0.508   1.511   1.330 -2.1132  0.0543  0.8721
 4424SOL     OW 9994   3.245   2.770   1.327  1.0872 -0.0712 -1.2482
 4424SOL    HW1 9995   3.191   2.760   1.406  1.9486 -0.0302 -0.6302
 4424SOL    HW2 9996   3.206   2.710   1.264  0.7115 -0.5267 -0.6006
 4425SOL     OW 9997   1.828   2.406   1.044 -0.0059  0.2114  0.2069
 4425SOL    HW1 9998   1.854   2.346   1.114  2.2714  0.8109 -0.0731
 4425SOL    HW2 9999   1.896   2.473   1.042 -0.1772  0.4169 -2.3593
 4426SOL     OW10000   1.446   4.279   3.253  0.8015  0.1722 -0.0367
 4426SOL    HW110001   1.464   4.185   3.255 -0.7215 -0.1316  1.1913
 4426SOL    HW210002   1.487   4.313   3.333  1.6401  0.6201 -0.6500
 4427SOL     OW10003   3.044   2.540   1.468  0.1719  0.0842  0.7444
 4427SOL    HW110004   3.059   2.591   1.389  0.2440 -0.9301  0.0802
 4427SOL    HW210005   2.954   2.509   1.459  0.6026 -1.1128  0.4090
 4428SOL     OW10006   2.284   0.026   0.680  0.3196  0.0033 -0.3403
 4428SOL    HW110007   2.349   0.090   0.652  1.1353  0.3195  2.0522
 4428SOL    HW210008   2.329  -0.027   0.747 -1.5364 -0.4370  0.6416
 4429SOL     OW10009   3.251   0.752   2.898  0.7134 -0.4400  0.0108
 4429SOL    HW110010   3.323   0.696   2.924  0.1900 -1.3026 -0.3445
 4429SOL    HW210011   3.288   0.840   2.896  1.1621 -0.5411  2.0806
 4430SOL     OW10012   2.892   0.015   2.012  0.0032 -0.1312  0.5135
 4430SOL    HW110013   2.879   0.090   2.070 -1.6054 -0.2762  0.3835
 4430SOL    HW210014   2.958   0.044   1.950  1.2202  0.2909  1.9560
 4431SOL     OW10015   2.551   1.847   0.972 -0.0346 -0.4515 -0.0927
 4431SOL    HW110016   2.587   1.860   0.884 -1.0994  0.6018 -0.3946
 4431SOL    HW210017   2.510   1.760   0.969  1.3804 -1.1418 -0.1063
 4432SOL     OW10018   3.892   1.681   1.434  0.1363 -0.4176 -1.1070
 4432SOL    HW110019   3.875   1.602   1.486  2.7798  1.5504  3.3754
 4432SOL    HW210020   3.821   1.741   1.459  0.3747 -0.0595 -1.2906
 4433SOL     OW10021   2.945   0.215   1.422 -0.1932  0.2267  0.7152
 4433SOL    HW110022   2.980   0.277   1.486  0.2630 -0.8101  1.5073
 4433SOL    HW210023   2.863   0.185   1.461 -0.3725  0.2702  0.3732
 4434SOL     OW10024   1.277   1.651   1.684  0.3709 -0.0968  0.4730
 4434SOL    HW110025   1.286   1.738   1.723 -1.2552  0.4435 -0.2922
 4434SOL    HW210026   1.190   1.621   1.712 -0.6992  0.1390 -2.3448
 4435SOL     OW10027   2.892   2.357   2.442 -0.6377 -0.1693 -0.9673
 4435SOL    HW110028   2.881   2.450   2.464  0.1152 -0.1291 -0.7640
 4435SOL    HW210029   2.812   2.336   2.393 -1.1198  0.4132 -0.4617
 4436SOL     OW10030   3.117   3.976   1.059 -0.4974  1.1355 -0.5476
 4436SOL    HW110031   3.095   4.047   0.999 -1.4040  1.1142 -0.2588
 4436SOL    HW210032   3.142   4.019   1.140 -3.6142  1.1644  0.5180
 4437SOL     OW10033   0.406   2.172   0.903 -0.3633 -0.1099 -0.0245
 4437SOL    HW110034   0.315   2.190   0.928 -0.7816 -2.1030  0.0070
 4437SOL    HW210035   0.446   2.133   0.980  0.3812  0.2176 -0.2250
 4438SOL     OW10036   3.970   0.016   0.992 -0.2278 -0.5757  0.2947
 4438SOL    HW110037   4.017   0.082   1.043 -0.4020 -0.7287  0.6576
 4438SOL    HW210038   3.881   0.050   0.985 -0.2470 -0.6365  0.2396
 4439SOL     OW10039   1.133   2.085   0.946 -0.4816  0.0392  0.5379
 4439SOL    HW110040   1.190   2.008   0.942 -1.2587 -0.5095 -1.1852
 4439SOL    HW210041   1.171   2.140   1.014  1.6908 -0.6262 -0.0493
 4440SOL     OW10042   3.812   3.589   0.689  0.4497 -0.0484 -0.6474
 4440SOL    HW110043   3.765   3.512   0.658 -0.3790  0.0947  0.2156
 4440SOL    HW210044   3.901   3.557   0.707 -0.3236 -1.2391  1.3584
 4441SOL     OW10045   0.371   2.560   1.859 -0.0123  0.1773  0.4436
 4441SOL    HW110046   0.349   2.483   1.806  0.2365 -0.3992  1.1598
 4441SOL    HW210047   0.462   2.546   1.886  0.5634  1.4770 -0.6814
 4442SOL     OW10048   2.860   1.048   2.527  0.8762  0.1055 -0.2891
 4442SOL    HW110049   2.911   1.126   2.505  0.7657  0.1952 -0.2276
 4442SOL    HW210050   2.868   1.039   2.622 -0.3693  0.9291 -0.0891
 4443SOL     OW10051   3.789   2.758   2.123 -0.0242 -0.0641  0.3184
 4443SOL    HW110052   3.779   2.823   2.053 -0.6952 -0.4601  0.0391
 4443SOL    HW210053   3.700   2.743   2.154  0.1976 -0.4004  0.8062
 4444SOL     OW10054   2.789   2.505   0.949 -0.1905 -0.0788 -0.5094
 4444SOL    HW110055   2.849   2.446   0.995 -0.3312  1.0976  1.2750
 4444SOL    HW210056   2.809   2.492   0.857  0.3569 -2.2804 -0.1403
 4445SOL     OW10057   2.632   3.487   1.635  0.3425  0.4192  0.1291
 4445SOL    HW110058   2.718   3.457   1.605 -0.3416 -1.1643 -0.3221
 4445SOL    HW210059   2.597   3.536   1.561 -0.4455 -1.6596 -0.9307
 4446SOL     OW10060   2.400   1.548   3.312 -0.4283  0.3168  0.4133
 4446SOL    HW110061   2.358   1.561   3.398 -1.1605  0.7132  0.0073
 4446SOL    HW210062   2.328   1.523   3.255  0.1566 -0.5721  0.0410
 4447SOL     OW10063   2.561   3.641   1.874  0.6388 -0.5164 -0.8022
 4447SOL    HW110064   2.601   3.605   1.795  0.4507  0.1138 -1.1922
 4447SOL    HW210065   2.543   3.732   1.852 -0.6071 -0.6691 -0.4859
 4448SOL     OW10066   3.779   1.881   0.997 -0.3528 -0.2142  0.1787
 4448SOL    HW110067   3.865   1.888   1.040 -0.2881 -0.7764  0.1424
 4448SOL    HW210068   3.727   1.950   1.039 -0.1000 -0.3427  0.7183
 4449SOL     OW10069   3.439   4.318   1.031 -0.2914  1.0076  0.0364
 4449SOL    HW110070   3.418   4.344   1.120  0.5589 -0.0175  0.5665
 4449SOL    HW210071   3.401   4.386   0.976 -1.7411  1.1167  1.1138
 4450SOL     OW10072   2.854   2.024   0.682 -0.1248  0.7289  0.9240
 4450SOL    HW110073   2.910   2.102   0.686  0.9348  0.0036  0.4377
 4450SOL    HW210074   2.912   1.953   0.656 -1.6551  0.3634 -1.9709
 4451SOL     OW10075   0.524   2.266   4.266  0.4297  0.5785 -0.2040
 4451SOL    HW110076   0.479   2.260   4.350  0.9802  0.7547  0.1061
 4451SOL    HW210077   0.590   2.334   4.278  0.3872  0.7390 -0.8378
 4452SOL     OW10078   1.292   2.495   1.375 -0.2245 -0.2854  0.0804
 4452SOL    HW110079   1.372   2.493   1.428 -0.2615  2.0492  0.3456
 4452SOL    HW210080   1.320   2.531   1.291 -0.8979  0.0419 -0.0113
 4453SOL     OW10081   2.700   2.986   1.188 -0.1785  0.0221  0.2124
 4453SOL    HW110082   2.646   3.052   1.145 -1.3132 -0.2766  1.1240
 4453SOL    HW210083   2.687   2.906   1.137 -2.1488 -0.5350  1.4952
 4454SOL     OW10084   1.703   2.644   2.633  0.3691  0.2412  0.3208
 4454SOL    HW110085   1.611   2.643   2.604  0.7351  0.1211 -0.8773
 4454SOL    HW210086   1.710   2.569   2.692 -0.0606 -0.3819 -0.3992
 4455SOL     OW10087   4.292   3.254   2.844  0.1669  0.5687 -0.4975
 4455SOL    HW110088   4.255   3.173   2.809  0.2752  1.0788 -1.8376
 4455SOL    HW210089   4.379   3.260   2.804  1.5878 -0.3587  2.2078
 4456SOL     OW10090   2.001   3.758   1.578  0.0470  0.4198  0.6300
 4456SOL    HW110091   2.006   3.694   1.506  1.9397 -0.5803  1.5644
 4456SOL    HW210092   1.964   3.709   1.651  1.3350  0.4026  1.3014
 4457SOL     OW10093   2.322   2.506   0.660  0.2708 -0.0118 -0.0793
 4457SOL    HW110094   2.247   2.447   0.647  1.7604 -1.7712 -1.2778
 4457SOL    HW210095   2.286   2.593   0.646 -1.9878 -0.5859  1.5160
 4458SOL     OW10096   3.711   2.179   2.313 -0.5035  1.0873  0.7043
 4458SOL    HW110097   3.718   2.254   2.253  0.5240  0.4877  0.0483
 4458SOL    HW210098   3.740   2.104   2.261 -1.1284  0.2955  1.4797
 4459SOL     OW10099   3.135   4.314   1.474  0.3670 -0.6237 -0.3651
 4459SOL    HW110100   3.062   4.263   1.509 -0.7603  1.7867  0.9880
 4459SOL    HW210101   3.099   4.400   1.455  2.6889  0.4495 -0.3071
 4460SOL     OW10102   3.109   2.959   1.186  0.1758  0.0757  0.2190
 4460SOL    HW110103   3.157   3.028   1.141  1.1187 -1.1396 -0.6915
 4460SOL    HW210104   3.175   2.908   1.231 -0.3629 -0.9583 -0.1267
 4461SOL     OW10105   2.714   3.193   0.702  0.0870 -0.1572 -0.0144
 4461SOL    HW110106   2.731   3.104   0.732  1.3112 -0.0088 -0.2188
 4461SOL    HW210107   2.800   3.231   0.688 -0.4203  0.6908 -1.0408
 4462SOL     OW10108   3.946   3.813   2.420  0.1814  0.4195  0.5876
 4462SOL    HW110109   3.975   3.737   2.369 -2.6511  0.0268 -0.5911
 4462SOL    HW210110   3.893   3.776   2.491  0.2605  1.2350  1.0856
 4463SOL     OW10111   2.532   4.068   2.879  0.6976 -0.2881 -0.1622
 4463SOL    HW110112   2.593   4.095   2.948 -1.0035  1.5076  0.7727
 4463SOL    HW210113   2.566   4.109   2.799  0.1476  1.7375  0.5751
 4464SOL     OW10114   3.082   2.414   2.154  0.1878  0.7605 -0.4510
 4464SOL    HW110115   3.113   2.340   2.207 -0.6999  0.8104  0.1546
 4464SOL    HW210116   3.157   2.437   2.100  1.1498  0.7505  0.8361
 4465SOL     OW10117   2.291   1.056   0.930 -0.0061  0.0083  0.1971
 4465SOL    HW110118   2.261   1.116   0.862 -0.7807 -1.5287 -0.8761
 4465SOL    HW210119   2.386   1.059   0.925 -0.0278 -1.1066 -1.9480
 4466SOL     OW10120   2.759   3.683   0.663 -0.2307 -0.5130  0.0976
 4466SOL    HW110121   2.736   3.605   0.612  1.4383  0.6265 -2.6514
 4466SOL    HW210122   2.853   3.675   0.678 -0.2619  0.4050  0.8698
 4467SOL     OW10123   1.912   2.089   1.133  0.4465  0.3796  0.8535
 4467SOL    HW110124   1.894   2.141   1.211  1.4614  0.9203  0.7353
 4467SOL    HW210125   1.825   2.075   1.093  0.0586  1.1218  1.4234
 4468SOL     OW10126   3.498   2.835   1.432 -0.3411 -0.0327  0.1213
 4468SOL    HW110127   3.561   2.854   1.363  0.4769 -0.4421  0.7448
 4468SOL    HW210128   3.421   2.802   1.385 -0.6390  1.7546 -0.7392
 4469SOL     OW10129   3.467   2.525   0.666 -0.2672 -0.6118 -0.7735
 4469SOL    HW110130   3.541   2.464   0.665 -0.4261 -0.8207 -0.0005
 4469SOL    HW210131   3.461   2.556   0.575  0.4330 -0.9939 -0.9581
 4470SOL     OW10132   2.769   2.585   1.547  0.4652 -0.0644 -0.0858
 4470SOL    HW110133   2.782   2.663   1.600 -0.5553  0.5606 -0.7300
 4470SOL    HW210134   2.689   2.545   1.580 -1.0437  1.1494 -2.0367
 4471SOL     OW10135   2.692   1.873   2.661  0.2676  0.6864 -0.0570
 4471SOL    HW110136   2.621   1.935   2.647  0.6438  1.2377  0.4081
 4471SOL    HW210137   2.741   1.873   2.578 -0.5186 -0.0281 -0.5289
 4472SOL     OW10138   2.361   2.978   2.313 -0.4788 -0.4291  0.0577
 4472SOL    HW110139   2.293   2.958   2.378 -1.8529 -0.7711 -1.4267
 4472SOL    HW210140   2.336   3.063   2.278  1.8419  1.1164  1.8901
 4473SOL     OW10141   2.864   4.072   2.161  0.3141  0.0890  0.1792
 4473SOL    HW110142   2.916   4.065   2.241  1.5230 -1.9193 -0.7058
 4473SOL    HW210143   2.867   4.165   2.139  0.6164  0.5541  2.0168
 4474SOL     OW10144   3.964   2.600   2.489  0.3194 -0.5184 -0.6989
 4474SOL    HW110145   3.999   2.526   2.440  0.0111 -1.5303  0.5475
 4474SOL    HW210146   3.869   2.590   2.483  0.2585 -1.4536  1.1965
 4475SOL     OW10147   3.445   1.258   2.943 -0.0019  0.6292 -0.2463
 4475SOL    HW110148   3.478   1.345   2.967 -1.2520  1.0914 -0.1293
 4475SOL    HW210149   3.483   1.241   2.856  2.8309 -0.1297  1.0020
 4476SOL     OW10150   3.242   2.566   2.368 -0.0490  0.2976 -0.0896
 4476SOL    HW110151   3.197   2.484   2.388 -0.5429  0.9510  1.6874
 4476SOL    HW210152   3.330   2.540   2.343  0.2730 -0.7381  1.9439
 4477SOL     OW10153   3.030   3.030   4.227  0.5676 -0.2192  0.5325
 4477SOL    HW110154   2.959   2.967   4.223  0.7109 -0.6140  2.8831
 4477SOL    HW210155   3.108   2.982   4.199  0.0520  0.0887 -1.5914
 4478SOL     OW10156   1.499   0.306   2.567  0.0493  0.2277  0.6850
 4478SOL    HW110157   1.562   0.336   2.501 -0.6371  1.9861  0.7812
 4478SOL    HW210158   1.484   0.214   2.546  1.1750  0.2930 -0.5259
 4479SOL     OW10159   2.931   3.227   4.044  0.0192 -0.0994  0.1864
 4479SOL    HW110160   2.983   3.179   4.108 -0.2996 -3.1253 -1.6186
 4479SOL    HW210161   2.842   3.193   4.055 -0.6636  1.5513  0.0940
 4480SOL     OW10162   2.707   3.710   2.676  0.3483  0.2125  0.4861
 4480SOL    HW110163   2.725   3.752   2.761  0.6761  0.3567  0.3484
 4480SOL    HW210164   2.749   3.624   2.683 -0.1907 -0.0359  0.7115
 4481SOL     OW10165   0.036   3.708   2.977 -0.2365 -0.5345  0.6047
 4481SOL    HW110166  -0.011   3.625   2.968  0.1787 -0.7436  0.3306
 4481SOL    HW210167   0.047   3.718   3.072 -1.3710 -0.1663  0.7189
 4482SOL     OW10168   2.321   2.496   2.750 -0.1942 -0.0737 -0.3425
 4482SOL    HW110169   2.293   2.571   2.697  1.0748  1.5020  1.1014
 4482SOL    HW210170   2.409   2.519   2.780 -0.2817 -1.5657  1.1977
 4483SOL     OW10171   2.873   0.648   2.973 -0.3990  0.2062 -0.3580
 4483SOL    HW110172   2.925   0.724   2.948  0.5762  0.4663  2.1129
 4483SOL    HW210173   2.918   0.574   2.932 -1.3372  0.8920 -2.7527
 4484SOL     OW10174   3.272   1.822   1.790 -0.1366 -0.4297  0.0268
 4484SOL    HW110175   3.181   1.805   1.766 -0.2227  0.5521 -0.3594
 4484SOL    HW210176   3.282   1.777   1.874 -0.1197 -3.0466 -1.2635
 4485SOL     OW10177   1.832   2.010   1.510  0.3252 -0.0392 -0.5482
 4485SOL    HW110178   1.870   1.929   1.542  0.1125 -0.8639 -2.2697
 4485SOL    HW210179   1.907   2.064   1.484  0.4753  0.4442  0.7683
 4486SOL     OW10180   2.754   4.142   3.043 -0.2912 -0.0451  0.4144
 4486SOL    HW110181   2.757   4.113   3.134 -0.2632  0.5230  0.5968
 4486SOL    HW210182   2.831   4.102   3.003  0.3906  0.7070  0.9496
 4487SOL     OW10183   1.306   3.026   1.656  0.2447 -0.5458 -0.3000
 4487SOL    HW110184   1.281   3.055   1.744  0.3409  1.3618 -0.8378
 4487SOL    HW210185   1.224   3.026   1.607  0.2138 -1.4702 -0.2633
 4488SOL     OW10186   4.298   1.664   3.240 -0.0054  0.1222  0.1728
 4488SOL    HW110187   4.288   1.569   3.246  0.9087  0.0937  1.8898
 4488SOL    HW210188   4.240   1.690   3.168 -2.3540 -1.4158  1.3977
 4489SOL     OW10189   2.426   2.885   2.597 -0.5034 -0.1137  0.1061
 4489SOL    HW110190   2.438   2.879   2.692 -0.2739 -1.8049  0.0094
 4489SOL    HW210191   2.490   2.950   2.568  0.9187 -1.1139  0.8873
 4490SOL     OW10192   3.408   0.653   1.950  0.7951 -0.1990  0.0991
 4490SOL    HW110193   3.331   0.707   1.967  0.8165 -0.0860 -0.1474
 4490SOL    HW210194   3.480   0.716   1.940  0.7716 -0.2532 -0.4522
 4491SOL     OW10195   4.173   1.757   3.001  0.1542  0.0978  0.6226
 4491SOL    HW110196   4.115   1.729   2.930  0.6442 -0.5276  0.4601
 4491SOL    HW210197   4.225   1.828   2.964 -1.0007  1.1673  0.9926
 4492SOL     OW10198   3.872   1.631   4.222  0.5776  0.2737 -0.5371
 4492SOL    HW110199   3.833   1.604   4.138  1.2947 -0.5145 -0.6232
 4492SOL    HW210200   3.937   1.564   4.241  2.6856  2.0706 -0.9381
 4493SOL     OW10201   1.964   2.345   2.606 -0.5085  0.2862 -0.6532
 4493SOL    HW110202   2.013   2.423   2.581  0.5146  0.4078  1.4524
 4493SOL    HW210203   1.883   2.378   2.643 -1.0944  0.2083 -1.8298
 4494SOL     OW10204   0.696   3.403   2.005  0.2038  0.3247  0.0516
 4494SOL    HW110205   0.762   3.370   2.065  1.4679  1.8815 -0.4029
 4494SOL    HW210206   0.614   3.366   2.037  1.2301 -1.3646  0.8557
 4495SOL     OW10207   2.652   2.380   2.288  0.0709  0.2662  0.3172
 4495SOL    HW110208   2.660   2.475   2.287  0.9716  0.2870  2.8524
 4495SOL    HW210209   2.570   2.363   2.241  0.8113  2.0960 -1.8570
 4496SOL     OW10210   2.524   1.990   3.412  0.6808 -0.2422 -0.0306
 4496SOL    HW110211   2.432   1.988   3.386  0.1672  1.9761  1.2971
 4496SOL    HW210212   2.565   2.051   3.349  0.9404 -0.1668  0.2096
 4497SOL     OW10213   0.760   3.977   3.776  0.4122 -0.4539  0.3353
 4497SOL    HW110214   0.800   4.061   3.755 -0.3133 -0.4372 -1.0983
 4497SOL    HW210215   0.823   3.912   3.745  1.1292 -0.4641  1.7543
 4498SOL     OW10216   0.541   3.172   3.634 -0.3526  0.4041 -0.0856
 4498SOL    HW110217   0.539   3.109   3.706  2.7323 -3.2164 -2.7291
 4498SOL    HW210218   0.593   3.245   3.667 -1.2792  0.1386  2.1274
 4499SOL     OW10219   1.948   1.328   4.483 -0.0161 -0.2918 -0.0343
 4499SOL    HW110220   2.033   1.310   4.443  0.2193  0.5836  0.0381
 4499SOL    HW210221   1.950   1.280   4.566  0.6518  0.1858  0.2379
 4500SOL     OW10222   2.781   2.101   4.165 -0.4084 -0.1789  0.6027
 4500SOL    HW110223   2.850   2.065   4.109  0.1553 -0.5034  1.4801
 4500SOL    HW210224   2.780   2.044   4.242 -0.0281  1.1826  1.6660
 4501SOL     OW10225   3.728   3.080   1.004  0.1378 -0.0678  0.0217
 4501SOL    HW110226   3.750   3.162   1.048  0.1637 -0.2514  0.3532
 4501SOL    HW210227   3.813   3.042   0.980  0.2314 -0.9564  1.6290
 4502SOL     OW10228   1.577   0.034   3.497 -0.2032  0.3130 -0.4162
 4502SOL    HW110229   1.646  -0.029   3.474 -0.1899  0.6206 -1.2553
 4502SOL    HW210230   1.560   0.018   3.589  0.4789 -0.2714 -0.3819
 4503SOL     OW10231   3.701   2.931   1.930 -0.4613  0.1573  0.0649
 4503SOL    HW110232   3.663   2.899   1.849  0.6241 -1.5584  0.1610
 4503SOL    HW210233   3.729   3.020   1.911 -2.1674  0.5553 -0.7438
 4504SOL     OW10234   1.525   2.319   2.833 -0.0045 -0.1573  0.2457
 4504SOL    HW110235   1.458   2.360   2.888  0.4606  0.4289  0.3877
 4504SOL    HW210236   1.490   2.325   2.744  1.3791  3.5122 -0.2242
 4505SOL     OW10237   2.189   2.905   2.886 -0.4195 -0.2096  0.1208
 4505SOL    HW110238   2.204   2.991   2.927  1.6090 -0.9304  1.0573
 4505SOL    HW210239   2.267   2.892   2.832 -1.7083 -0.5739 -1.7390
 4506SOL     OW10240   2.007   2.303   3.406  0.0810  0.4061  0.3952
 4506SOL    HW110241   2.018   2.379   3.464  0.5385  1.7428 -1.3332
 4506SOL    HW210242   2.095   2.286   3.373 -0.0786 -0.7005  0.5161
 4507SOL     OW10243   1.200   3.835   3.438  0.2716 -0.6611 -0.0702
 4507SOL    HW110244   1.259   3.810   3.367  1.1955 -2.3323  1.1845
 4507SOL    HW210245   1.249   3.898   3.489 -0.1048 -0.0122 -0.5025
 4508SOL     OW10246   3.907   3.250   3.737  0.3047  0.1007  0.1515
 4508SOL    HW110247   3.950   3.327   3.698  1.6149 -0.0034  1.3170
 4508SOL    HW210248   3.915   3.183   3.670 -0.8388  0.9444 -0.8789
 4509SOL     OW10249   2.635   1.162   1.352  0.4277  0.2802  0.2322
 4509SOL    HW110250   2.562   1.125   1.302  1.4913  0.7413 -1.7859
 4509SOL    HW210251   2.708   1.103   1.334  0.9043  0.5982  1.0873
 4510SOL     OW10252   3.677   1.483   2.779 -0.1826 -0.4058 -0.0201
 4510SOL    HW110253   3.651   1.533   2.856 -1.3939 -1.0289 -0.0011
 4510SOL    HW210254   3.610   1.503   2.714 -0.0089 -1.0469 -0.4103
 4511SOL     OW10255   2.234   2.344   3.665  0.6419 -0.5458  0.0169
 4511SOL    HW110256   2.170   2.415   3.673  0.0521 -1.2085  1.5135
 4511SOL    HW210257   2.285   2.367   3.587 -1.4848 -0.0490 -1.3234
 4512SOL     OW10258   0.581   0.600   3.131 -0.7192 -0.2421 -0.0902
 4512SOL    HW110259   0.658   0.563   3.087 -1.8592  0.0304 -2.4868
 4512SOL    HW210260   0.566   0.683   3.085 -1.5233  0.4751  1.4222
 4513SOL     OW10261   2.213   1.608   4.037 -0.1580  0.0385 -0.1426
 4513SOL    HW110262   2.218   1.571   4.125  0.4601 -1.3619 -0.7268
 4513SOL    HW210263   2.157   1.685   4.046 -0.7266 -0.5079  1.3304
 4514SOL     OW10264   2.091   3.273   2.241  0.4016 -0.0213  0.2698
 4514SOL    HW110265   2.103   3.181   2.216  0.0645 -0.1508  0.5694
 4514SOL    HW210266   2.025   3.305   2.181  0.2063 -0.0963  0.4434
 4515SOL     OW10267   4.051   0.271   3.150 -0.0610  0.2068  0.2727
 4515SOL    HW110268   3.956   0.271   3.162 -0.3227 -1.0448 -1.4766
 4515SOL    HW210269   4.069   0.352   3.102 -0.5935 -0.6563 -1.4676
 4516SOL     OW10270   1.214   3.385   1.490 -0.8332 -0.1043 -0.4352
 4516SOL    HW110271   1.143   3.389   1.426 -1.3357  0.9538  0.1601
 4516SOL    HW210272   1.223   3.475   1.520  2.4561  0.3549 -2.2955
 4517SOL     OW10273   0.425   1.701   2.698 -0.3275 -0.7476 -0.3926
 4517SOL    HW110274   0.430   1.773   2.635 -2.4315 -1.2163 -1.1696
 4517SOL    HW210275   0.410   1.623   2.644  0.9052 -1.6504  0.5097
 4518SOL     OW10276   1.835   3.617   2.062  0.6746  0.3521 -0.3897
 4518SOL    HW110277   1.756   3.641   2.013 -0.8906  1.7751  2.5432
 4518SOL    HW210278   1.824   3.524   2.081  1.0701 -0.0987 -2.1901
 4519SOL     OW10279   3.785   3.670   3.488 -0.0329 -0.1990  0.0730
 4519SOL    HW110280   3.856   3.617   3.451  0.7342  0.7877  0.0841
 4519SOL    HW210281   3.817   3.760   3.482 -1.5114  0.3193 -0.3894
 4520SOL     OW10282   1.437   2.982   2.749 -0.0256 -0.0692 -0.2017
 4520SOL    HW110283   1.379   2.963   2.674  0.5118  0.3242 -0.7268
 4520SOL    HW210284   1.406   2.924   2.818 -0.9812  0.0492 -0.5085
 4521SOL     OW10285   3.933   2.474   4.188 -0.0532  0.3039  0.2792
 4521SOL    HW110286   3.880   2.514   4.256 -1.1718  2.0158 -1.4877
 4521SOL    HW210287   3.941   2.383   4.214 -0.5039  0.8624  2.6142
 4522SOL     OW10288   0.664   3.197   4.739  0.0343 -0.1328  0.3477
 4522SOL    HW110289   0.724   3.133   4.702 -1.1364 -1.4720  0.6561
 4522SOL    HW210290   0.678   3.191   4.833  0.1553  0.3258  0.3621
 4523SOL     OW10291   2.447   0.660   2.711 -0.7293 -0.0459  0.1840
 4523SOL    HW110292   2.426   0.650   2.804 -0.8147  1.3399  0.3323
 4523SOL    HW210293   2.371   0.705   2.674 -1.4601 -2.0666 -0.9391
 4524SOL     OW10294   2.353   3.294   0.672 -0.2628  0.5495 -0.3699
 4524SOL    HW110295   2.416   3.354   0.632  2.1530 -0.8957  1.0254
 4524SOL    HW210296   2.330   3.335   0.755  0.6061  0.0677  0.1242
 4525SOL     OW10297   3.467   2.952   2.603  0.0781 -0.7102  0.7314
 4525SOL    HW110298   3.556   2.953   2.568 -0.0591  0.6638  0.3317
 4525SOL    HW210299   3.411   2.944   2.525 -0.1793  0.3418  0.7921
 4526SOL     OW10300   2.294   3.914   2.515 -0.1533  0.9184 -0.1941
 4526SOL    HW110301   2.231   3.976   2.552  0.1609  0.9961  0.2191
 4526SOL    HW210302   2.240   3.848   2.472 -0.4887  2.1743 -1.8212
 4527SOL     OW10303   2.861   1.798   3.389  0.6019  0.7360 -0.5004
 4527SOL    HW110304   2.825   1.848   3.462  0.4795 -0.4686  0.3073
 4527SOL    HW210305   2.789   1.741   3.361  1.3174 -0.4471 -0.0157
 4528SOL     OW10306   1.594   3.122   3.980  0.2763 -0.3915  0.3165
 4528SOL    HW110307   1.680   3.111   4.022  0.1259  0.8437  1.0089
 4528SOL    HW210308   1.536   3.146   4.052 -0.3394  0.1979 -0.3653
 4529SOL     OW10309   2.761   0.746   3.308 -0.0649 -0.1800 -0.1297
 4529SOL    HW110310   2.765   0.841   3.305  0.9883 -0.1737  1.0448
 4529SOL    HW210311   2.723   0.721   3.223  0.2163  1.2384 -0.6924
 4530SOL     OW10312   3.671   3.408   3.604  0.3385  0.2693  0.3886
 4530SOL    HW110313   3.733   3.371   3.667 -1.1062 -1.2914  0.9492
 4530SOL    HW210314   3.685   3.503   3.609  1.0838  0.0903  2.1668
 4531SOL     OW10315   2.829   2.628   2.520 -0.7355  0.5633 -0.0708
 4531SOL    HW110316   2.790   2.699   2.469  0.8810  0.0366 -2.1678
 4531SOL    HW210317   2.921   2.653   2.529 -0.5983 -0.2545  1.0417
 4532SOL     OW10318   2.421   1.597   0.945  0.7771 -0.3917 -0.2267
 4532SOL    HW110319   2.340   1.606   0.995  1.3671 -0.1581  0.7170
 4532SOL    HW210320   2.459   1.514   0.975  0.5550 -0.8562 -1.1815
 4533SOL     OW10321   3.530   3.932   1.993  0.3596 -0.3772 -0.2561
 4533SOL    HW110322   3.537   3.960   2.084 -0.2765 -2.2324  0.4159
 4533SOL    HW210323   3.510   4.012   1.944  1.3076  0.7454  1.1332
 4534SOL     OW10324   1.545   2.398   1.006  0.4834  0.2392  0.8756
 4534SOL    HW110325   1.550   2.491   1.026  0.5748  0.1019  1.5093
 4534SOL    HW210326   1.635   2.373   0.983  0.0720  0.8084 -1.6904
 4535SOL     OW10327   2.809   1.143   2.819  0.2294  0.0715  0.3252
 4535SOL    HW110328   2.895   1.117   2.852 -0.2573  0.5558  2.1226
 4535SOL    HW210329   2.806   1.238   2.830  0.2374  0.3653 -1.7633
 4536SOL     OW10330   3.811   3.018   3.149  0.4953 -0.0090  0.3853
 4536SOL    HW110331   3.777   3.063   3.072 -2.0620 -1.0783  0.8117
 4536SOL    HW210332   3.875   2.955   3.115  0.3267  0.4016 -0.7119
 4537SOL     OW10333   3.777   3.565   1.155  0.0459  0.2952  0.3744
 4537SOL    HW110334   3.857   3.555   1.207 -0.0445 -1.7712  0.2158
 4537SOL    HW210335   3.795   3.640   1.098  1.9281 -0.1648  0.2745
 4538SOL     OW10336   2.446   2.699   2.355 -0.0032  0.0048  0.3193
 4538SOL    HW110337   2.413   2.778   2.397  1.3973  0.2660  1.0150
 4538SOL    HW210338   2.537   2.720   2.333  0.3007 -1.2967  0.2512
 4539SOL     OW10339   3.320   1.221   3.248  0.4886 -0.0642  0.2588
 4539SOL    HW110340   3.331   1.155   3.317 -3.0974 -2.4818 -1.1467
 4539SOL    HW210341   3.395   1.208   3.191  0.6960 -1.9192  0.8815
 4540SOL     OW10342   2.564   2.660   5.251 -0.0490  0.0132 -0.0672
 4540SOL    HW110343   2.607   2.681   5.168  1.5753 -2.5538  0.0162
 4540SOL    HW210344   2.550   2.745   5.292  0.2221  1.2729 -2.4105
 4541SOL     OW10345   3.149   2.009   2.407 -0.2818 -0.1065 -0.3151
 4541SOL    HW110346   3.228   1.956   2.398  0.6143  1.4708 -2.5399
 4541SOL    HW210347   3.082   1.960   2.359 -0.4457 -0.9570  0.7364
 4542SOL     OW10348   3.602   2.133   1.926 -0.3111 -0.0860 -0.0169
 4542SOL    HW110349   3.600   2.229   1.930  0.6795 -0.0295 -0.5204
 4542SOL    HW210350   3.625   2.114   1.835 -2.2496 -0.8546 -0.4016
 4543SOL     OW10351   0.494   1.748   3.116  0.3442 -0.3381  0.1592
 4543SOL    HW110352   0.422   1.765   3.176 -0.2929 -1.3077 -0.3146
 4543SOL    HW210353   0.506   1.653   3.119  0.8349 -0.3120 -0.6392
 4544SOL     OW10354   0.388   0.610   2.101  0.0423 -0.0258  0.1838
 4544SOL    HW110355   0.447   0.541   2.132  0.3608  0.8428  1.6429
 4544SOL    HW210356   0.444   0.688   2.095 -0.2978  0.1232 -1.4890
 4545SOL     OW10357   0.073   2.100   2.033  0.1993 -0.1558  0.3945
 4545SOL    HW110358   0.157   2.129   1.996 -0.4752  1.0450 -0.2532
 4545SOL    HW210359   0.068   2.007   2.009  0.8960 -0.0013 -0.4302
 4546SOL     OW10360   2.799   0.695   1.672 -0.4686  0.0132 -0.3391
 4546SOL    HW110361   2.871   0.696   1.609 -0.7134  0.0556 -0.6229
 4546SOL    HW210362   2.742   0.768   1.644 -0.7172 -0.1408 -0.2354
 4547SOL     OW10363   3.227   3.418   3.344  0.2204  0.2269  0.4085
 4547SOL    HW110364   3.275   3.378   3.416 -2.6322 -1.7082  1.4107
 4547SOL    HW210365   3.160   3.472   3.386 -0.7963 -0.0395 -0.7853
 4548SOL     OW10366   3.490   2.330   2.180 -0.0089  0.6029 -0.0314
 4548SOL    HW110367   3.516   2.242   2.207 -0.2951  0.2538 -0.8653
 4548SOL    HW210368   3.464   2.373   2.262  0.0962 -0.0915  0.3783
 4549SOL     OW10369   3.188   0.216   2.960 -0.3493  0.6798 -0.0403
 4549SOL    HW110370   3.204   0.255   3.046  0.4907 -1.2474  0.7278
 4549SOL    HW210371   3.263   0.243   2.908  0.1062  0.2991  0.4106
 4550SOL     OW10372   1.853   2.296   1.301 -0.8550  0.1001 -0.5634
 4550SOL    HW110373   1.795   2.342   1.360 -0.5306  1.2397 -1.1020
 4550SOL    HW210374   1.930   2.275   1.354 -0.6917  0.8493 -0.4947
 4551SOL     OW10375   0.079   0.409   4.629  0.9764 -0.3784  0.1700
 4551SOL    HW110376   0.069   0.314   4.631 -0.7493 -0.2341  1.2749
 4551SOL    HW210377   0.121   0.430   4.713 -0.2612 -0.0728  0.7453
 4552SOL     OW10378   2.963   3.631   1.894 -0.1613  0.5451 -0.0017
 4552SOL    HW110379   2.919   3.678   1.965 -1.9562 -0.3701 -0.4439
 4552SOL    HW210380   2.971   3.541   1.927  1.0539  0.5992 -0.1005
 4553SOL     OW10381   4.094   2.416   2.322 -0.2306  0.1109  0.4896
 4553SOL    HW110382   4.044   2.474   2.264  0.7952 -0.1040 -0.6318
 4553SOL    HW210383   4.185   2.432   2.300  0.1551 -0.5312  1.5353
 4554SOL     OW10384   3.215   1.684   2.053 -0.1302  0.4686  0.1219
 4554SOL    HW110385   3.221   1.656   2.145 -1.5342 -0.6283 -0.1011
 4554SOL    HW210386   3.127   1.718   2.044 -0.0184  0.5130 -0.8508
 4555SOL     OW10387   2.508   4.235   3.551  0.4165 -0.1604 -0.4041
 4555SOL    HW110388   2.424   4.226   3.507  1.6930  0.3766 -3.1724
 4555SOL    HW210389   2.488   4.279   3.633 -2.1677 -1.5804 -0.1848
 4556SOL     OW10390   1.000   3.998   2.174 -0.1701 -0.3117  0.1944
 4556SOL    HW110391   1.034   4.075   2.127  0.0590  0.2228  1.2053
 4556SOL    HW210392   0.911   3.987   2.141 -0.4939  0.8914  0.6051
 4557SOL     OW10393   3.703   3.311   3.351  0.4333 -0.0631 -0.1310
 4557SOL    HW110394   3.688   3.216   3.349  0.1501 -0.0103 -1.9744
 4557SOL    HW210395   3.653   3.342   3.427 -0.8980 -1.1660 -0.5211
 4558SOL     OW10396   1.587   3.318   2.109 -0.0363  0.6184 -0.1434
 4558SOL    HW110397   1.568   3.225   2.117  0.9568  0.4389  0.1931
 4558SOL    HW210398   1.559   3.341   2.020  0.3064 -0.1474 -0.4568
 4559SOL     OW10399   1.688   1.695   2.792 -0.4044 -0.0562  0.0365
 4559SOL    HW110400   1.762   1.680   2.850  0.2779  2.5393 -0.0686
 4559SOL    HW210401   1.612   1.666   2.842  0.4170 -0.2596  1.2034
 4560SOL     OW10402   3.768   1.911   3.322 -0.0766  0.0047 -0.6332
 4560SOL    HW110403   3.853   1.892   3.283  0.3958  0.0880  0.3104
 4560SOL    HW210404   3.789   1.947   3.408 -1.0599  0.5107 -0.5888
 4561SOL     OW10405   1.774   2.701   3.553  0.1492 -0.2613 -0.1271
 4561SOL    HW110406   1.825   2.781   3.568  0.5848 -0.8593  1.9539
 4561SOL    HW210407   1.720   2.721   3.477  0.5836  1.8512  0.0554
 4562SOL     OW10408   3.603   1.821   2.195 -0.5800  0.5043  0.5190
 4562SOL    HW110409   3.581   1.783   2.110 -1.0170 -1.7223  1.5523
 4562SOL    HW210410   3.659   1.896   2.174  0.0888 -0.5291 -1.6970
 4563SOL     OW10411   3.705   2.574   2.435 -0.5483  0.6867  0.1800
 4563SOL    HW110412   3.641   2.503   2.444 -1.2586  1.4961  1.9842
 4563SOL    HW210413   3.673   2.626   2.362 -0.8232 -0.0305 -0.2223
 4564SOL     OW10414   2.994   3.476   2.435  0.0889  0.8257  0.2324
 4564SOL    HW110415   2.927   3.471   2.503 -0.0738  1.1793  0.1008
 4564SOL    HW210416   3.072   3.506   2.481  0.0040  0.9728  0.2828
 4565SOL     OW10417   3.155   0.087   1.155  0.7977 -0.4175  0.1499
 4565SOL    HW110418   3.114   0.010   1.116 -0.9614  0.3948  0.3104
 4565SOL    HW210419   3.083   0.149   1.167  2.1791  1.2930 -0.0460
 4566SOL     OW10420   2.424   0.249   3.558  0.0091 -0.5543  0.5280
 4566SOL    HW110421   2.373   0.221   3.483 -0.8194 -1.5506  1.4357
 4566SOL    HW210422   2.514   0.252   3.526 -0.3416 -0.8955 -0.5123
 4567SOL     OW10423   1.705   0.844   3.739  0.2440 -0.1947 -0.5097
 4567SOL    HW110424   1.703   0.936   3.765 -0.8240  0.2800 -2.1120
 4567SOL    HW210425   1.790   0.812   3.771  0.5074  1.2578  0.3218
 4568SOL     OW10426   3.358   2.033   2.822  0.3535  0.4108  0.0045
 4568SOL    HW110427   3.442   1.997   2.850  0.9413  0.5131 -1.5504
 4568SOL    HW210428   3.293   1.988   2.877  1.3578 -0.2287  0.6951
 4569SOL     OW10429   1.540   3.749   4.137  0.2469 -0.1371 -0.1070
 4569SOL    HW110430   1.604   3.782   4.074 -0.5968 -0.2014 -1.0283
 4569SOL    HW210431   1.540   3.654   4.124 -0.4692 -0.0860 -0.5617
 4570SOL     OW10432   3.226   0.581   3.674 -0.2796 -0.0077  0.0747
 4570SOL    HW110433   3.293   0.519   3.643  1.5609  0.9710  1.8273
 4570SOL    HW210434   3.143   0.542   3.647  0.9887 -0.7853 -3.1159
 4571SOL     OW10435   1.807   2.721   2.158  0.1042 -0.4719  0.6292
 4571SOL    HW110436   1.791   2.792   2.220  0.9198 -0.0736  0.3930
 4571SOL    HW210437   1.730   2.722   2.100 -1.3136 -1.6799  2.3710
 4572SOL     OW10438   3.404   3.363   2.507  0.0290  0.6042  0.7815
 4572SOL    HW110439   3.316   3.333   2.527 -0.2639  0.7172 -0.2967
 4572SOL    HW210440   3.458   3.327   2.578 -0.4922 -1.4578  0.2017
 4573SOL     OW10441   1.078   2.035   2.387 -0.0782  0.8504 -0.1693
 4573SOL    HW110442   1.052   2.048   2.296  1.6997  0.7786 -0.7193
 4573SOL    HW210443   1.145   1.966   2.384 -0.3180  0.5141  1.2508
 4574SOL     OW10444   2.095   3.031   3.679  0.0102 -0.2845 -0.3769
 4574SOL    HW110445   2.065   2.967   3.615  0.2150 -0.1038 -0.6559
 4574SOL    HW210446   2.186   3.050   3.654  0.0904 -0.2090 -0.0379
 4575SOL     OW10447   1.756   2.485   3.092  0.2640  0.6537 -0.2794
 4575SOL    HW110448   1.760   2.406   3.145 -1.1191  0.1659 -0.8399
 4575SOL    HW210449   1.800   2.552   3.145 -0.8737  0.1391  1.4128
 4576SOL     OW10450   0.797   0.854   2.736 -0.1936 -0.1825  0.1600
 4576SOL    HW110451   0.795   0.858   2.832 -0.4820 -0.9739  0.1948
 4576SOL    HW210452   0.763   0.767   2.715 -0.0014 -0.0675 -0.6594
 4577SOL     OW10453   1.881   0.557   2.804  0.1589 -0.4568  0.6089
 4577SOL    HW110454   1.835   0.499   2.865 -1.1423 -0.4262 -0.2926
 4577SOL    HW210455   1.829   0.638   2.804 -0.0233 -0.5554 -0.7282
 4578SOL     OW10456   1.574   1.961   1.112  0.2979 -0.5954  0.1645
 4578SOL    HW110457   1.553   1.992   1.200 -1.5959 -0.6832 -0.2241
 4578SOL    HW210458   1.513   2.008   1.055  1.1427 -0.9313 -1.0533
 4579SOL     OW10459   1.823   2.565   2.386  0.0959  0.1045 -0.1389
 4579SOL    HW110460   1.830   2.630   2.316 -0.5913 -0.6332 -0.9036
 4579SOL    HW210461   1.785   2.614   2.459 -0.2388  0.6134 -0.6461
 4580SOL     OW10462   1.794   2.698   5.892 -0.0368  0.0585  0.7083
 4580SOL    HW110463   1.888   2.713   5.894  0.0146 -0.1414 -0.0256
 4580SOL    HW210464   1.765   2.735   5.809 -0.6272  0.2507  0.9964
 4581SOL     OW10465   4.106   3.682   3.427 -0.1473  0.8197  0.2603
 4581SOL    HW110466   4.054   3.756   3.457 -0.2607  0.9397 -0.2176
 4581SOL    HW210467   4.044   3.626   3.380 -0.1631  0.1707  1.0238
 4582SOL     OW10468   2.630   3.280   2.719  0.3730 -0.1195 -0.3316
 4582SOL    HW110469   2.543   3.244   2.700  0.3281 -0.3861  0.3272
 4582SOL    HW210470   2.690   3.208   2.700  0.3020 -0.4936  0.7718
 4583SOL     OW10471   1.950   2.785   2.914  0.5639  0.1942  0.5627
 4583SOL    HW110472   2.022   2.847   2.918  0.6248  0.0744  1.5789
 4583SOL    HW210473   1.892   2.819   2.846  1.3058  0.5771  0.1137
 4584SOL     OW10474   1.154   0.653   3.637  0.6484 -0.0208 -0.0719
 4584SOL    HW110475   1.074   0.687   3.677 -0.4957  1.7864 -3.4379
 4584SOL    HW210476   1.221   0.717   3.660  0.5210 -0.1514  0.6741
 4585SOL     OW10477   3.792   3.516   4.099  0.2999  0.5815 -0.5206
 4585SOL    HW110478   3.784   3.438   4.045 -0.3323 -1.2916  2.0714
 4585SOL    HW210479   3.865   3.497   4.158 -0.2195  1.6915  0.5201
 4586SOL     OW10480   0.586   3.258   0.928  0.1245 -0.0327 -0.0272
 4586SOL    HW110481   0.522   3.187   0.920 -0.5169  0.5539 -0.1083
 4586SOL    HW210482   0.535   3.338   0.925  0.9829  0.5043 -1.5646
 4587SOL     OW10483   2.102   3.015   2.500  0.8080  0.2867 -0.4555
 4587SOL    HW110484   2.055   2.935   2.524  0.5829  0.1146 -1.4401
 4587SOL    HW210485   2.053   3.086   2.543  0.3615 -0.0004 -0.4933
 4588SOL     OW10486   3.042   3.674   5.381  0.0037 -0.1570  0.7514
 4588SOL    HW110487   3.103   3.741   5.409 -1.3120  1.4653 -0.0814
 4588SOL    HW210488   3.016   3.701   5.293  0.0766 -2.2429  0.0345
 4589SOL     OW10489   3.011   3.358   1.984 -0.0751  0.4282 -0.1619
 4589SOL    HW110490   2.950   3.363   2.058  0.8506  3.1634  0.5309
 4589SOL    HW210491   3.097   3.354   2.025  0.3671  0.0950 -1.1116
 4590SOL     OW10492   2.625   3.009   2.389 -0.5781 -0.0567  0.4167
 4590SOL    HW110493   2.537   2.997   2.353 -0.6801 -0.9787  0.9296
 4590SOL    HW210494   2.659   3.087   2.346 -0.8363 -0.9070 -1.4047
 4591SOL     OW10495   2.416   3.146   3.758 -0.2785 -0.0069 -0.1240
 4591SOL    HW110496   2.360   3.139   3.836 -0.8288 -0.0182 -0.5121
 4591SOL    HW210497   2.371   3.210   3.703 -0.2211 -0.4619 -0.7076
 4592SOL     OW10498   2.781   0.277   2.096 -0.3134 -0.1294  0.9400
 4592SOL    HW110499   2.695   0.313   2.121 -0.1409  0.0632  1.2699
 4592SOL    HW210500   2.841   0.351   2.106 -0.1905 -0.1220  0.1976
 4593SOL     OW10501   3.105   2.806   2.402  0.0092 -0.0435 -0.1752
 4593SOL    HW110502   3.163   2.732   2.385 -0.6534 -0.0190 -2.9376
 4593SOL    HW210503   3.019   2.775   2.375 -0.5069  1.3209 -0.1391
 4594SOL     OW10504   1.507   1.759   1.995 -0.1254 -0.4810  0.3186
 4594SOL    HW110505   1.555   1.825   2.046  2.1884 -1.1891 -0.7927
 4594SOL    HW210506   1.469   1.808   1.922  1.2629 -0.2480 -0.2930
 4595SOL     OW10507   2.705   3.821   1.453  0.1083  0.1493  0.3456
 4595SOL    HW110508   2.727   3.829   1.546  0.0867  1.8390  0.2378
 4595SOL    HW210509   2.617   3.783   1.452  0.0530  0.2426  1.0241
 4596SOL     OW10510   1.334   2.969   3.287  0.3489 -0.0540  0.0902
 4596SOL    HW110511   1.374   2.894   3.332  0.6781  0.9565  1.5637
 4596SOL    HW210512   1.250   2.936   3.257  1.3372 -1.6005 -1.1438
 4597SOL     OW10513   3.948   3.264   2.714 -0.1090  0.1599  0.4793
 4597SOL    HW110514   4.041   3.242   2.716  0.2231  1.4761  0.4883
 4597SOL    HW210515   3.943   3.351   2.753 -1.1277  0.8225 -1.0377
 4598SOL     OW10516   3.760   3.060   2.732 -0.4264  0.5140  0.2567
 4598SOL    HW110517   3.740   3.068   2.638 -0.2819 -1.5043  0.0181
 4598SOL    HW210518   3.826   3.128   2.747 -2.2160  2.5157 -0.5161
 4599SOL     OW10519   1.794   1.427   3.647  0.4507  0.2606 -0.0736
 4599SOL    HW110520   1.725   1.401   3.708 -0.6050  0.9967 -0.9184
 4599SOL    HW210521   1.869   1.446   3.703 -0.3412  0.4344  0.9625
 4600SOL     OW10522   4.294   4.107   2.426  0.0035 -0.5280  0.0887
 4600SOL    HW110523   4.310   4.012   2.425 -1.2570 -0.7482 -0.3938
 4600SOL    HW210524   4.199   4.115   2.433 -0.1805  0.6643 -2.7495
 4601SOL     OW10525   1.405   3.488   2.260 -0.6387  0.2225 -0.0074
 4601SOL    HW110526   1.324   3.470   2.212 -0.7094 -0.3015  0.2934
 4601SOL    HW210527   1.473   3.444   2.209 -0.2763  2.0523 -1.1715
 4602SOL     OW10528   4.099   2.527   1.485  0.5692  0.4505  0.0703
 4602SOL    HW110529   4.067   2.437   1.485 -2.1021  1.3347  0.2866
 4602SOL    HW210530   4.025   2.580   1.455  2.4048  2.5005 -1.1513
 4603SOL     OW10531   1.479   1.871   3.489  0.2070  0.3849 -0.0642
 4603SOL    HW110532   1.560   1.828   3.462 -0.6802 -0.5523 -1.3202
 4603SOL    HW210533   1.411   1.807   3.472 -1.0933  2.0327 -1.4060
 4604SOL     OW10534   4.217   0.732   2.113 -0.6041  0.0084 -0.1822
 4604SOL    HW110535   4.135   0.747   2.160 -0.6807 -0.4619 -0.1587
 4604SOL    HW210536   4.199   0.656   2.056 -0.8230  1.1433 -1.7010
 4605SOL     OW10537   0.596   4.183   2.891 -0.5031  0.0980 -0.7247
 4605SOL    HW110538   0.639   4.152   2.812  1.3858 -0.3984  0.4262
 4605SOL    HW210539   0.624   4.122   2.959 -0.6601  1.4881  0.6519
 4606SOL     OW10540   2.579   4.168   2.619 -0.0541  0.3975  0.7488
 4606SOL    HW110541   2.618   4.081   2.611 -0.5627  0.0343  1.9586
 4606SOL    HW210542   2.486   4.155   2.607 -0.1904  0.6789  1.4134
 4607SOL     OW10543   2.739   0.395   1.367  0.3201 -0.6888 -0.0500
 4607SOL    HW110544   2.807   0.329   1.375  1.1086  0.0993 -0.1069
 4607SOL    HW210545   2.669   0.365   1.426 -0.1036 -2.4738 -1.3955
 4608SOL     OW10546   2.885   3.801   1.243 -0.3070  0.0871  0.0811
 4608SOL    HW110547   2.813   3.832   1.298  0.8211 -0.5583  2.0290
 4608SOL    HW210548   2.954   3.866   1.257  0.7271 -1.1936  1.1529
 4609SOL     OW10549   2.977   0.386   2.857  0.1060 -0.1718 -0.4072
 4609SOL    HW110550   2.896   0.382   2.805  1.9098  0.5316 -3.5154
 4609SOL    HW210551   3.000   0.295   2.872 -0.0645 -0.4402 -1.6086
 4610SOL     OW10552   4.157   3.085   3.922 -0.7730 -0.1757 -0.4666
 4610SOL    HW110553   4.158   3.161   3.980 -0.9784 -0.1641 -0.4777
 4610SOL    HW210554   4.107   3.114   3.846  1.5359  0.6400 -1.7748
 4611SOL     OW10555   4.055   3.811   3.732 -0.0483 -0.1702 -0.1448
 4611SOL    HW110556   4.034   3.737   3.789  0.8808 -0.3229  0.0240
 4611SOL    HW210557   4.150   3.806   3.722  0.0534  1.1491  0.0526
 4612SOL     OW10558   1.985   2.901   3.445 -0.5151 -0.1789 -0.3635
 4612SOL    HW110559   2.024   2.971   3.393 -0.1342 -1.5200 -1.9427
 4612SOL    HW210560   1.954   2.837   3.381  1.1324 -2.5214  1.0393
 4613SOL     OW10561   3.116   4.269   3.103 -0.3725  0.3107 -0.3507
 4613SOL    HW110562   3.134   4.259   3.197  1.0841 -0.9383 -0.7271
 4613SOL    HW210563   3.117   4.364   3.089  3.0472  0.5079  0.3129
 4614SOL     OW10564   4.170   0.467   3.009  0.4040  0.1074 -0.4788
 4614SOL    HW110565   4.235   0.473   2.939  0.9166  3.1626  0.1138
 4614SOL    HW210566   4.105   0.535   2.988 -0.0986  0.2430  1.3280
 4615SOL     OW10567   2.231   4.073   4.196 -0.3270 -0.1842 -0.1549
 4615SOL    HW110568   2.244   3.980   4.214  2.1731  0.1100 -0.1247
 4615SOL    HW210569   2.319   4.108   4.185 -1.2598  1.8796 -1.8087
 4616SOL     OW10570   3.662   1.168   2.371  0.0384 -0.0658  0.1850
 4616SOL    HW110571   3.586   1.113   2.391  0.5670 -1.4237 -1.3250
 4616SOL    HW210572   3.632   1.258   2.384 -2.0503 -0.5384 -1.0217
 4617SOL     OW10573   2.840   3.434   2.666 -0.0683  0.1103 -0.2177
 4617SOL    HW110574   2.875   3.442   2.755 -0.8916  1.5996  0.0004
 4617SOL    HW210575   2.754   3.395   2.677 -0.3814  0.7579 -0.2894
 4618SOL     OW10576   2.843   0.055   2.716  0.5998 -0.3897  0.2868
 4618SOL    HW110577   2.907  -0.004   2.757  0.6550 -1.0847 -0.7769
 4618SOL    HW210578   2.803   0.003   2.647 -2.4899 -0.6265  2.0633
 4619SOL     OW10579   2.265   3.604   1.714  0.0982 -0.2228 -0.0837
 4619SOL    HW110580   2.194   3.635   1.770  0.3681  2.0259 -0.8825
 4619SOL    HW210581   2.329   3.567   1.775 -0.4572  0.3881  0.9007
 4620SOL     OW10582   2.378   3.857   3.199 -0.6172  0.5453  0.4002
 4620SOL    HW110583   2.326   3.870   3.278 -0.6554 -0.2944  0.5275
 4620SOL    HW210584   2.316   3.826   3.134 -0.6391  1.5225 -0.0561
 4621SOL     OW10585   0.533   3.563   3.206 -0.3877  0.4003  0.2146
 4621SOL    HW110586   0.508   3.655   3.193  1.6740  0.9880  0.1204
 4621SOL    HW210587   0.560   3.557   3.297  0.5966  0.1931 -0.0735
 4622SOL     OW10588   2.926   1.545   3.184  0.1199 -0.3887 -0.1341
 4622SOL    HW110589   2.833   1.528   3.194 -0.7949  2.8000 -1.8430
 4622SOL    HW210590   2.945   1.615   3.247  1.8574 -2.1143  1.4074
 4623SOL     OW10591   2.154   3.352   2.834  0.1767  0.0848 -0.5606
 4623SOL    HW110592   2.222   3.419   2.826 -0.8245  1.2341  0.2216
 4623SOL    HW210593   2.072   3.401   2.832 -0.5798 -1.1070  0.1980
 4624SOL     OW10594   3.340   3.602   2.197 -0.3556 -0.4535 -0.0333
 4624SOL    HW110595   3.297   3.648   2.269 -1.9887  1.4785 -2.0869
 4624SOL    HW210596   3.317   3.653   2.119  3.8323 -0.6429 -1.6438
 4625SOL     OW10597   2.869   2.914   2.960 -0.0806 -0.6118 -0.2360
 4625SOL    HW110598   2.853   2.828   3.000 -1.8593 -0.1337  0.1786
 4625SOL    HW210599   2.883   2.972   3.035  3.2372 -0.8329 -0.5437
 4626SOL     OW10600   2.418   3.050   0.994 -0.2894  0.4236 -0.2218
 4626SOL    HW110601   2.408   3.051   0.899  0.0989  0.6404 -0.2624
 4626SOL    HW210602   2.377   2.968   1.022 -1.7099  1.0412 -0.4231
 4627SOL     OW10603   1.598   1.173   3.039  0.1525 -0.4079 -0.5144
 4627SOL    HW110604   1.615   1.082   3.063  0.9692  0.0840  0.8768
 4627SOL    HW210605   1.683   1.216   3.049 -0.7711  1.0771  1.5619
 4628SOL     OW10606   2.690   3.933   3.262 -0.0261 -0.4799 -0.0525
 4628SOL    HW110607   2.599   3.905   3.252  0.3367 -2.0860  0.8695
 4628SOL    HW210608   2.742   3.859   3.230  0.9764  0.5551 -0.9139
 4629SOL     OW10609   1.884   1.306   1.275  0.1291  0.1110 -0.5515
 4629SOL    HW110610   1.795   1.341   1.285 -0.0446 -0.8587  1.9346
 4629SOL    HW210611   1.929   1.372   1.221 -1.9939  0.7323 -1.7055
 4630SOL     OW10612   2.249   2.156   3.245  0.0531  0.1659  0.3361
 4630SOL    HW110613   2.159   2.124   3.235  0.5060 -0.9524 -0.4072
 4630SOL    HW210614   2.298   2.080   3.277  0.6617  0.8811  1.1694
 4631SOL     OW10615   3.383   4.196   2.070 -0.0699  0.1462  0.1496
 4631SOL    HW110616   3.311   4.252   2.099 -0.5880  0.7715 -2.1343
 4631SOL    HW210617   3.460   4.253   2.074  0.2529 -0.3703  2.1005
 4632SOL     OW10618   1.036   2.350   4.347 -0.3642 -0.0157 -1.0866
 4632SOL    HW110619   1.011   2.260   4.329 -0.9733 -0.1087  0.1359
 4632SOL    HW210620   1.033   2.393   4.261 -0.5229 -1.0393 -1.6100
 4633SOL     OW10621   1.996   1.792   4.061  0.5327 -0.4024 -0.1977
 4633SOL    HW110622   1.906   1.814   4.083  0.8294 -0.4478  1.2091
 4633SOL    HW210623   1.997   1.781   3.966 -1.2590 -1.8623 -0.0949
 4634SOL     OW10624   3.305   0.966   4.803  0.1992  0.1632  0.0687
 4634SOL    HW110625   3.359   1.026   4.854  1.8943  0.7885 -2.2922
 4634SOL    HW210626   3.264   1.020   4.736  0.4175 -1.0320 -1.0752
 4635SOL     OW10627   2.619   3.874   4.603 -0.4843 -0.3494 -0.1316
 4635SOL    HW110628   2.546   3.934   4.622 -1.0408 -1.0950  0.1524
 4635SOL    HW210629   2.630   3.880   4.508 -0.9953 -0.3116 -0.1964
 4636SOL     OW10630   3.524   2.087   4.692  0.0758 -0.2567 -0.2946
 4636SOL    HW110631   3.459   2.021   4.669  0.0468 -0.2043 -0.3634
 4636SOL    HW210632   3.608   2.043   4.684  0.0059 -0.6002  0.6913
 4637SOL     OW10633   2.359   3.555   2.794  0.2919  0.0192  0.1664
 4637SOL    HW110634   2.370   3.562   2.699  0.3942  0.9543  0.2380
 4637SOL    HW210635   2.419   3.622   2.830  0.3618 -0.4201  0.8929
 4638SOL     OW10636   2.873   0.051   4.963  0.1878 -0.0317  0.7579
 4638SOL    HW110637   2.783   0.030   4.939  0.2102  1.0199 -0.3265
 4638SOL    HW210638   2.923   0.038   4.883  0.9942 -0.4509  1.3092
 4639SOL     OW10639   1.667   3.631   4.717  0.7299 -0.5715  0.3736
 4639SOL    HW110640   1.579   3.598   4.736 -0.1164  0.7618 -1.0109
 4639SOL    HW210641   1.721   3.598   4.789 -1.1638 -0.2432  2.0437
 4640SOL     OW10642   3.179   0.401   5.087  0.2111 -0.4181  0.4138
 4640SOL    HW110643   3.099   0.452   5.102  0.2986 -0.5028  1.2383
 4640SOL    HW210644   3.207   0.376   5.175  2.1304  1.1046  0.2835
 4641SOL     OW10645   2.089   1.910   3.105 -0.2445  0.3148  0.2600
 4641SOL    HW110646   2.163   1.939   3.052  0.5848 -0.3050  1.0349
 4641SOL    HW210647   2.017   1.967   3.079  0.3894  0.6566 -0.8215
 4642SOL     OW10648   3.258   4.105   4.712 -0.0394 -0.0404 -0.0483
 4642SOL    HW110649   3.347   4.101   4.677  0.2543  1.7874  0.3846
 4642SOL    HW210650   3.202   4.094   4.635  0.5494 -0.4398 -0.4316
 4643SOL     OW10651   2.267   3.142   2.987  0.2615 -0.3878  0.0329
 4643SOL    HW110652   2.359   3.161   2.973 -0.0030  0.9105 -0.1165
 4643SOL    HW210653   2.221   3.206   2.932 -0.7717  1.8923  3.2141
 4644SOL     OW10654   2.095   3.406   4.095 -0.4600 -0.4436 -0.2588
 4644SOL    HW110655   2.048   3.447   4.023  0.3619  0.4934 -0.2926
 4644SOL    HW210656   2.167   3.467   4.114 -0.9683 -0.3785  1.7173
 4645SOL     OW10657   2.750   3.786   2.957  0.0186 -0.3517  0.3913
 4645SOL    HW110658   2.728   3.766   3.048 -1.9380  2.0870  0.5638
 4645SOL    HW210659   2.832   3.836   2.962 -0.3558  0.2230  0.8862
 4646SOL     OW10660   1.816   1.939   4.471  0.4622  0.3168 -0.0591
 4646SOL    HW110661   1.797   1.859   4.519  0.4693  0.0849 -0.4327
 4646SOL    HW210662   1.783   1.922   4.383  0.9318  0.5253 -0.2819
 4647SOL     OW10663   2.172   2.225   5.170 -0.0968  0.0412 -0.1361
 4647SOL    HW110664   2.231   2.168   5.219 -0.4041 -0.5109 -0.3954
 4647SOL    HW210665   2.228   2.295   5.137  0.5658 -0.8818 -1.0250
 4648SOL     OW10666   1.100   3.035   3.094  0.8885  0.3349 -0.3503
 4648SOL    HW110667   1.110   3.071   3.006 -0.9406 -0.5003 -0.9381
 4648SOL    HW210668   1.100   3.112   3.151 -1.2974  1.2108 -1.4302
 4649SOL     OW10669   3.639   0.539   5.565 -0.1699  0.2739 -0.7020
 4649SOL    HW110670   3.698   0.601   5.523 -0.2732 -0.8026 -2.5248
 4649SOL    HW210671   3.696   0.474   5.606 -0.0687  0.0927 -1.1258
 4650SOL     OW10672   0.312   2.831   3.970 -0.2100  0.1573 -0.7815
 4650SOL    HW110673   0.244   2.767   3.990 -1.1778  1.4212  0.1554
 4650SOL    HW210674   0.295   2.904   4.029  0.3406  1.6406 -2.3460
 4651SOL     OW10675   2.191   2.426   3.200 -0.7075 -1.4083  0.5208
 4651SOL    HW110676   2.155   2.343   3.171 -2.9035 -0.8686  1.5108
 4651SOL    HW210677   2.168   2.488   3.131 -0.6678 -1.2886  0.6126
 4652SOL     OW10678   2.987   1.655   5.172  0.0650  0.5861  0.4548
 4652SOL    HW110679   3.075   1.618   5.169  0.1494  0.7987  0.3442
 4652SOL    HW210680   2.973   1.679   5.264  0.1833  0.7033  0.4417
 4653SOL     OW10681   1.817   1.742   5.482  0.2366 -0.2766  0.3160
 4653SOL    HW110682   1.878   1.761   5.553  0.6548  0.5547 -0.2479
 4653SOL    HW210683   1.756   1.678   5.519  0.2724  0.3566  1.5072
 4654SOL     OW10684   3.394   3.381   3.558 -0.0061 -0.4547 -0.0531
 4654SOL    HW110685   3.487   3.396   3.577 -0.2089 -0.2218  0.7795
 4654SOL    HW210686   3.380   3.288   3.579  0.0061 -0.4545 -0.0438
 4655SOL     OW10687   3.312   3.383   5.583  0.1769 -0.2146 -0.2584
 4655SOL    HW110688   3.347   3.350   5.665  1.8403  2.1244  0.0643
 4655SOL    HW210689   3.342   3.321   5.517  0.6537 -0.9423  0.6250
 4656SOL     OW10690   3.684   3.261   5.434 -0.1542  1.0239 -0.4249
 4656SOL    HW110691   3.660   3.294   5.348  0.3299  1.7979 -0.2696
 4656SOL    HW210692   3.633   3.180   5.444 -0.4060  1.0664 -1.3219
 4657SOL     OW10693   1.858   3.563   5.047 -0.6421 -0.1480 -0.2934
 4657SOL    HW110694   1.815   3.632   5.098  0.4325 -0.9645  1.8103
 4657SOL    HW210695   1.810   3.483   5.069 -0.3114 -0.4766 -0.7418
 4658SOL     OW10696   1.696   2.891   5.383  0.2378 -0.4069  0.0827
 4658SOL    HW110697   1.744   2.971   5.405 -0.5581  0.6252 -1.7449
 4658SOL    HW210698   1.753   2.846   5.320 -0.2640 -0.2198 -0.5060
 4659SOL     OW10699   0.797   1.733   2.541 -0.4390 -0.0335  0.2688
 4659SOL    HW110700   0.880   1.696   2.510 -0.4909  0.7489 -0.9018
 4659SOL    HW210701   0.737   1.659   2.543 -0.1768 -0.2843 -0.6568
 4660SOL     OW10702   2.902   2.851   5.546 -0.0193 -0.7116 -0.0134
 4660SOL    HW110703   2.922   2.908   5.620 -1.1491 -0.7627  0.3509
 4660SOL    HW210704   2.984   2.844   5.498  0.8404 -0.9909  1.4466
 4661SOL     OW10705   3.590   3.005   6.010 -0.1223 -0.2824 -0.1928
 4661SOL    HW110706   3.601   3.100   6.015 -0.0703 -0.1812 -1.7435
 4661SOL    HW210707   3.678   2.969   6.021 -0.1453 -0.1694  0.4137
 4662SOL     OW10708   3.283   3.357   2.826  0.4689  0.1134 -0.1304
 4662SOL    HW110709   3.290   3.263   2.841 -1.0031  0.0730  0.5535
 4662SOL    HW210710   3.225   3.388   2.896 -0.1476  1.2959 -1.1157
 4663SOL     OW10711   3.593   2.132   5.828  0.0124  0.0393  0.3516
 4663SOL    HW110712   3.663   2.083   5.873 -0.1137  1.7348  2.5908
 4663SOL    HW210713   3.632   2.218   5.811 -0.7323  0.1769 -0.7383
 4664SOL     OW10714   3.892   2.449   5.258 -0.2066  0.3776  0.1308
 4664SOL    HW110715   3.959   2.516   5.270  1.9792 -1.4770 -1.0738
 4664SOL    HW210716   3.812   2.499   5.240  1.1335  2.6646  0.1144
 4665SOL     OW10717   4.028   0.292   5.079 -0.0135  0.0336  0.0520
 4665SOL    HW110718   3.966   0.266   5.011 -0.9208 -0.9018  1.1958
 4665SOL    HW210719   4.113   0.292   5.035 -0.5950 -0.3977 -1.1169
 4666SOL     OW10720   1.477   3.624   3.379 -0.2710 -0.5194 -0.1778
 4666SOL    HW110721   1.449   3.568   3.450 -0.1098 -0.8507 -0.3713
 4666SOL    HW210722   1.570   3.604   3.368 -0.1455 -0.0180 -0.0704
 4667SOL     OW10723   0.489   3.422   4.814 -0.8405  0.5028 -0.3565
 4667SOL    HW110724   0.512   3.346   4.759 -0.7636 -1.0647  1.7054
 4667SOL    HW210725   0.402   3.447   4.784 -0.8585 -0.4078 -1.1221
 4668SOL     OW10726   3.465   3.234   3.864  0.2023 -0.2520 -0.5995
 4668SOL    HW110727   3.450   3.328   3.878  2.2512  0.0360  0.0501
 4668SOL    HW210728   3.547   3.216   3.911 -0.3391 -2.4564 -0.3993
 4669SOL     OW10729   3.995   0.763   4.410  0.8160 -0.3986 -0.1537
 4669SOL    HW110730   4.008   0.758   4.505  0.1039 -2.7876 -0.0998
 4669SOL    HW210731   3.915   0.815   4.400  2.2387  2.0325  0.3337
 4670SOL     OW10732   3.208   1.313   5.314  0.1485  0.6154 -0.1636
 4670SOL    HW110733   3.290   1.263   5.308 -0.1461  0.2777 -2.1978
 4670SOL    HW210734   3.140   1.246   5.311 -0.2226  0.9374  0.8319
 4671SOL     OW10735   2.845   2.664   3.046  0.1784 -0.0810 -0.4277
 4671SOL    HW110736   2.930   2.620   3.043 -0.2524 -0.9648 -0.1635
 4671SOL    HW210737   2.784   2.600   3.008 -0.3289  0.6432 -0.8511
 4672SOL     OW10738   1.413   4.024   3.207 -0.0777 -0.2530  0.9596
 4672SOL    HW110739   1.418   3.929   3.200 -0.3130 -0.2227  0.2468
 4672SOL    HW210740   1.327   4.045   3.171  1.2839  0.5008 -2.1207
 4673SOL     OW10741   3.516   3.095   4.486  0.3993  0.4524 -0.0358
 4673SOL    HW110742   3.480   3.153   4.419  0.0763 -0.7216 -0.9075
 4673SOL    HW210743   3.440   3.048   4.520  0.6034  0.8155  0.9553
 4674SOL     OW10744   3.695   0.195   5.385  0.3694 -0.1855  0.7343
 4674SOL    HW110745   3.740   0.166   5.464  2.8817  0.4093 -0.3553
 4674SOL    HW210746   3.763   0.239   5.334 -1.9362  2.7024 -0.1529
 4675SOL     OW10747   2.705   2.805   1.727  0.0184 -0.3555 -0.1434
 4675SOL    HW110748   2.626   2.751   1.734 -0.1743 -0.0134  0.3956
 4675SOL    HW210749   2.770   2.760   1.780  0.0249 -0.3517 -0.1481
 4676SOL     OW10750   2.968   2.238   2.849  0.3945 -0.6793  0.0722
 4676SOL    HW110751   3.057   2.245   2.814  0.0945 -0.5962 -0.6917
 4676SOL    HW210752   2.916   2.203   2.776  0.1185 -2.3347  1.0161
 4677SOL     OW10753   1.647   0.408   4.749 -0.2183  0.2982 -0.2414
 4677SOL    HW110754   1.595   0.414   4.830 -0.9826 -0.2126 -0.6842
 4677SOL    HW210755   1.599   0.462   4.686 -0.6815 -0.8298 -0.8852
 4678SOL     OW10756   3.615   0.777   3.592 -0.1303  0.0884  0.1458
 4678SOL    HW110757   3.681   0.721   3.552 -0.2083  0.2412 -0.1990
 4678SOL    HW210758   3.536   0.724   3.595 -0.2248  0.2065 -0.2515
 4679SOL     OW10759   4.047   0.803   4.131 -0.2467  0.5377  0.1804
 4679SOL    HW110760   4.047   0.766   4.219  0.7219 -0.2459 -0.1264
 4679SOL    HW210761   4.026   0.730   4.073  0.4844  0.7239 -0.3435
 4680SOL     OW10762   2.819   2.740   2.261  0.3299  0.3607  0.0918
 4680SOL    HW110763   2.770   2.817   2.232  0.6531 -0.0405 -1.6222
 4680SOL    HW210764   2.824   2.684   2.184  1.6957 -0.5509  0.7959
 4681SOL     OW10765   2.683   2.544   3.574 -0.4728 -0.5969 -0.9691
 4681SOL    HW110766   2.679   2.557   3.479 -0.6678  1.8012 -0.7053
 4681SOL    HW210767   2.626   2.612   3.610  0.7730 -0.4630  0.9126
 4682SOL     OW10768   1.987   1.528   3.819 -0.0430  0.2489 -0.0287
 4682SOL    HW110769   2.073   1.521   3.860 -0.3106  0.6382  0.6167
 4682SOL    HW210770   1.968   1.621   3.818  0.5620  0.4065 -2.3504
 4683SOL     OW10771   3.443   0.666   5.891  0.4041  0.2183 -0.1565
 4683SOL    HW110772   3.473   0.575   5.887 -2.3952 -0.7596 -1.8230
 4683SOL    HW210773   3.506   0.714   5.837  1.7381 -0.7649  0.4759
 4684SOL     OW10774   3.706   1.345   4.691  0.2280 -0.0721 -0.0594
 4684SOL    HW110775   3.723   1.409   4.760  1.4609 -1.0348  0.5730
 4684SOL    HW210776   3.614   1.322   4.703 -0.0571  1.0777  0.1143
 4685SOL     OW10777   4.171   0.984   4.999  0.6897 -0.3379 -0.2938
 4685SOL    HW110778   4.148   1.050   4.933  1.3887 -0.1106 -0.3099
 4685SOL    HW210779   4.187   1.034   5.079 -0.0832 -0.6064  0.0446
 4686SOL     OW10780   3.098   0.208   4.916 -0.2089  0.4635  0.9301
 4686SOL    HW110781   3.114   0.286   4.969 -2.4860  1.1885  0.6551
 4686SOL    HW210782   3.015   0.174   4.949 -0.4639 -0.4451 -0.5761
 4687SOL     OW10783   4.102   2.906   4.549  0.0734  0.0572 -0.4167
 4687SOL    HW110784   4.042   2.874   4.482  0.1264  0.4999 -0.6813
 4687SOL    HW210785   4.091   2.846   4.623 -0.7214  0.1648 -0.4484
 4688SOL     OW10786   2.426   1.685   5.324 -0.2530 -0.3320 -0.2272
 4688SOL    HW110787   2.492   1.621   5.298  0.5931  1.2975 -2.4258
 4688SOL    HW210788   2.366   1.689   5.250 -0.5443  1.0588  0.0606
 4689SOL     OW10789   2.065   2.989   4.204 -0.2052 -0.6259  1.2217
 4689SOL    HW110790   2.032   2.925   4.267  0.9024 -3.0620 -0.5261
 4689SOL    HW210791   2.115   2.937   4.140 -1.5367  1.6164 -1.8864
 4690SOL     OW10792   3.982   0.698   2.930  0.6222 -0.6961  0.2367
 4690SOL    HW110793   4.068   0.736   2.949  0.5843  0.2315 -1.3036
 4690SOL    HW210794   3.948   0.751   2.858 -0.6704 -1.9078 -0.0813
 4691SOL     OW10795   2.720   2.837   3.927 -0.1503  0.0177 -0.0908
 4691SOL    HW110796   2.702   2.852   3.834  0.6956  0.5704 -0.1837
 4691SOL    HW210797   2.816   2.837   3.933 -0.1218 -2.4460  0.4186
 4692SOL     OW10798   3.080   0.233   5.970  0.2308 -0.2535  0.0749
 4692SOL    HW110799   3.125   0.154   5.940  0.4509 -0.9130  2.0193
 4692SOL    HW210800   3.005   0.242   5.911  0.5340 -1.5699 -0.5353
 4693SOL     OW10801   2.625   1.240   5.120  0.1220 -0.1284 -0.2363
 4693SOL    HW110802   2.649   1.148   5.131 -0.4146 -0.2042  0.3350
 4693SOL    HW210803   2.540   1.238   5.077  1.1015  0.1434 -2.3344
 4694SOL     OW10804   2.247   3.123   4.393 -0.8363  0.2908  0.1402
 4694SOL    HW110805   2.332   3.095   4.360  0.0651  1.1496  1.6383
 4694SOL    HW210806   2.186   3.104   4.322  0.2558 -2.2458 -0.2209
 4695SOL     OW10807   3.335   3.782   4.396  0.4362  0.5217  0.2719
 4695SOL    HW110808   3.349   3.875   4.414  0.6257  0.1871  2.0696
 4695SOL    HW210809   3.423   3.744   4.396  0.3255  0.2622  0.1094
 4696SOL     OW10810   0.003   1.595   3.773  0.3840  0.3226  0.2117
 4696SOL    HW110811   0.036   1.516   3.817  0.3970 -0.4178 -1.0624
 4696SOL    HW210812   0.031   1.584   3.682  0.5321  1.9039  0.0466
 4697SOL     OW10813   2.333   3.373   3.601  0.4175  0.3174 -1.3190
 4697SOL    HW110814   2.294   3.427   3.531 -0.9536  3.0981  1.3546
 4697SOL    HW210815   2.419   3.412   3.616  1.4520 -1.3678 -2.4644
 4698SOL     OW10816   1.109   3.740   4.767 -0.0549 -0.8101  0.0014
 4698SOL    HW110817   1.090   3.795   4.692  3.0198 -0.8428 -0.9140
 4698SOL    HW210818   1.058   3.778   4.839 -2.5670 -0.4039 -1.8667
 4699SOL     OW10819   1.966   1.680   3.536  0.3707 -0.1410 -0.8264
 4699SOL    HW110820   1.944   1.733   3.613 -2.0593 -0.6875 -1.0858
 4699SOL    HW210821   1.956   1.740   3.462 -1.0358 -0.5607 -1.0020
 4700SOL     OW10822   2.700   1.933   3.602 -0.2770 -0.6051 -0.2173
 4700SOL    HW110823   2.659   1.960   3.520  1.3610 -0.6472 -1.0921
 4700SOL    HW210824   2.626   1.917   3.661 -1.4590  0.7769 -1.2326
 4701SOL     OW10825   0.248   3.289   5.953  0.5168  0.2754  0.5577
 4701SOL    HW110826   0.208   3.296   5.867 -0.7409 -0.2232  1.0751
 4701SOL    HW210827   0.274   3.198   5.961 -1.8176 -0.3836  1.6843
 4702SOL     OW10828   1.745   4.135   4.390  0.1002 -0.1433  0.5690
 4702SOL    HW110829   1.737   4.040   4.389  2.0605 -0.3447  0.5845
 4702SOL    HW210830   1.824   4.152   4.440  0.2263  1.4551 -0.1105
 4703SOL     OW10831   1.549   3.337   2.580 -0.1205  0.3857  0.5051
 4703SOL    HW110832   1.466   3.382   2.562 -1.1682 -1.9592 -1.0016
 4703SOL    HW210833   1.524   3.260   2.630  1.1902 -0.1775  0.3247
 4704SOL     OW10834   2.791   4.156   5.586  0.6213 -0.6619 -0.0042
 4704SOL    HW110835   2.776   4.225   5.521  0.2055  1.2680  2.0491
 4704SOL    HW210836   2.884   4.137   5.580  0.8467  0.4843 -0.2245
 4705SOL     OW10837   2.886   1.125   5.503 -0.5630  0.0698  0.8930
 4705SOL    HW110838   2.873   1.195   5.439  0.9205 -0.0604  0.4183
 4705SOL    HW210839   2.797   1.095   5.523 -1.0724  0.0896 -1.1234
 4706SOL     OW10840   2.471   2.437   5.342  0.6900 -0.1719  0.2926
 4706SOL    HW110841   2.494   2.525   5.313  0.3588  0.1756  1.0609
 4706SOL    HW210842   2.555   2.396   5.364  1.2635 -1.3434 -3.4682
 4707SOL     OW10843   1.245   3.242   4.875 -0.1855  0.1069  0.7289
 4707SOL    HW110844   1.234   3.171   4.812 -0.6808  0.2903  0.6062
 4707SOL    HW210845   1.229   3.201   4.960  0.6475 -0.1777  0.7551
 4708SOL     OW10846   3.819   1.683   4.772  0.1563  0.1108 -0.3299
 4708SOL    HW110847   3.826   1.602   4.822 -0.7192  0.3420  0.1842
 4708SOL    HW210848   3.844   1.659   4.683 -0.5825 -0.8331 -0.2911
 4709SOL     OW10849   1.844   3.791   4.547  0.1827 -0.3172 -0.0666
 4709SOL    HW110850   1.760   3.804   4.503  0.4129 -1.6605 -0.9410
 4709SOL    HW210851   1.820   3.758   4.634 -0.2033 -1.5832 -0.6325
 4710SOL     OW10852   1.580   2.979   3.547  0.4873 -0.6332 -0.3181
 4710SOL    HW110853   1.575   2.907   3.484  0.0142 -0.4839 -0.4546
 4710SOL    HW210854   1.625   2.942   3.623  0.8931 -0.8674 -0.6657
 4711SOL     OW10855   3.687   4.284   4.081 -0.1456 -0.0859  0.1148
 4711SOL    HW110856   3.728   4.361   4.041  0.0010 -0.4623 -0.4580
 4711SOL    HW210857   3.740   4.210   4.052 -0.5739 -0.4582  0.2708
 4712SOL     OW10858   3.245   2.592   5.038  0.4853 -0.1348  0.0722
 4712SOL    HW110859   3.310   2.570   4.971  0.6495 -1.1436  0.5426
 4712SOL    HW210860   3.188   2.515   5.041 -0.5138  0.5889 -0.0690
 4713SOL     OW10861   0.387   1.456   3.065 -0.1111 -0.4002 -0.4535
 4713SOL    HW110862   0.302   1.421   3.038 -1.5577  1.7715  1.0290
 4713SOL    HW210863   0.377   1.474   3.159  1.9049  0.2087 -0.3083
 4714SOL     OW10864   2.890   2.128   5.501  0.5001  0.1014 -0.0597
 4714SOL    HW110865   2.820   2.065   5.517  0.1411  0.5873  0.2924
 4714SOL    HW210866   2.874   2.161   5.413  0.2121  0.3086  0.0707
 4715SOL     OW10867   2.596   2.312   3.706 -0.4576 -0.5004  0.3075
 4715SOL    HW110868   2.612   2.293   3.798  0.2662  1.1794  0.5508
 4715SOL    HW210869   2.619   2.404   3.695 -2.4323 -0.1051 -1.1211
 4716SOL     OW10870   3.672   3.656   5.473 -0.3985 -0.1744 -0.2578
 4716SOL    HW110871   3.664   3.653   5.568 -0.5730  0.4812 -0.2474
 4716SOL    HW210872   3.587   3.627   5.440 -0.0791 -1.1770 -0.2276
 4717SOL     OW10873   0.656   3.222   5.627  0.0091  0.0047 -0.1482
 4717SOL    HW110874   0.703   3.192   5.549 -0.8126 -0.0266 -0.6373
 4717SOL    HW210875   0.722   3.271   5.676  0.5862 -0.1219 -0.7665
 4718SOL     OW10876   3.793   2.796   5.428 -0.5863  0.0323 -0.5490
 4718SOL    HW110877   3.756   2.735   5.492  0.7194  1.7620  2.0522
 4718SOL    HW210878   3.866   2.748   5.389  0.0320 -0.3357  0.9922
 4719SOL     OW10879   3.745   3.067   4.164  0.3012  0.0881  0.3252
 4719SOL    HW110880   3.766   2.999   4.228 -1.2577  0.7524  1.6007
 4719SOL    HW210881   3.658   3.098   4.189 -0.2356  0.5912 -1.9552
 4720SOL     OW10882   4.170   1.084   5.251 -0.1605 -0.2742 -0.7951
 4720SOL    HW110883   4.092   1.076   5.306  0.8690 -1.6535  0.5132
 4720SOL    HW210884   4.217   1.159   5.287  0.7714 -1.4795  0.6345
 4721SOL     OW10885   3.003   4.273   4.727  0.5208 -0.1966  0.0571
 4721SOL    HW110886   3.090   4.247   4.757  0.1437 -2.0796 -0.3374
 4721SOL    HW210887   3.017   4.313   4.641  0.7750 -3.7526 -1.7268
 4722SOL     OW10888   3.741   1.959   4.803 -0.9143  0.3728 -0.2951
 4722SOL    HW110889   3.823   2.009   4.804 -0.7097  0.0454  0.4779
 4722SOL    HW210890   3.769   1.868   4.796 -1.0937  0.1135  1.7038
 4723SOL     OW10891   0.450   2.564   4.649  0.1967 -0.8659  0.0177
 4723SOL    HW110892   0.491   2.596   4.568  0.1167 -0.1798  0.2438
 4723SOL    HW210893   0.360   2.543   4.624  0.3087 -1.1186 -0.1788
 4724SOL     OW10894   2.254   1.671   3.538  0.1172 -0.2311  0.1757
 4724SOL    HW110895   2.281   1.619   3.614 -0.4887  0.5355  0.9276
 4724SOL    HW210896   2.160   1.682   3.548  0.5805  4.1050  2.1278
 4725SOL     OW10897   3.271   1.469   3.115 -0.0387 -0.0021 -0.0297
 4725SOL    HW110898   3.232   1.429   3.038 -1.3790 -0.1308  0.6892
 4725SOL    HW210899   3.313   1.397   3.161 -0.3789 -0.1560  0.0389
 4726SOL     OW10900   1.852   3.397   4.768  0.4704  0.2849 -0.0727
 4726SOL    HW110901   1.926   3.431   4.818  1.8025 -2.7033  0.2325
 4726SOL    HW210902   1.890   3.372   4.684 -0.5392  0.1394 -0.4931
 4727SOL     OW10903   3.401   3.587   5.421 -0.3434 -0.1691  0.4953
 4727SOL    HW110904   3.384   3.502   5.461 -1.6080  0.5895  1.6584
 4727SOL    HW210905   3.399   3.571   5.327 -3.0068 -1.0225  0.6282
 4728SOL     OW10906   2.912   0.546   4.189  0.3540  0.6314  0.2252
 4728SOL    HW110907   2.840   0.485   4.173 -0.3479  1.7743 -1.2175
 4728SOL    HW210908   2.990   0.499   4.161  0.2922 -0.7739  2.1730
 4729SOL     OW10909   2.009   2.767   2.577  0.1452  0.0776  0.1274
 4729SOL    HW110910   1.979   2.687   2.620 -1.3094 -0.7871 -2.2737
 4729SOL    HW210911   2.102   2.752   2.561  0.2953 -0.3416  1.3049
 4730SOL     OW10912   2.206   1.490   3.123  0.1008 -0.3897  0.0488
 4730SOL    HW110913   2.126   1.468   3.171 -1.4393  1.3978 -1.5451
 4730SOL    HW210914   2.223   1.413   3.069 -2.1385  0.0893 -1.5197
 4731SOL     OW10915   0.973   3.678   3.452 -0.5833  0.3145  0.2663
 4731SOL    HW110916   1.064   3.707   3.466 -0.4051 -0.2015  0.2032
 4731SOL    HW210917   0.979   3.622   3.374 -0.8107 -0.4218  0.7719
 4732SOL     OW10918   1.833   3.192   4.354  0.3184 -0.3739  0.5090
 4732SOL    HW110919   1.831   3.188   4.259  0.6799  1.9152  0.3461
 4732SOL    HW210920   1.827   3.285   4.374  3.8030 -0.4125  2.6036
 4733SOL     OW10921   1.610   3.007   6.012  0.1729  0.1017 -0.0384
 4733SOL    HW110922   1.517   3.000   5.992  0.4274  1.4153 -1.9409
 4733SOL    HW210923   1.654   2.971   5.935  1.2839 -1.3473  1.2084
 4734SOL     OW10924   0.540   2.802   6.154  0.0050 -0.2644  0.4042
 4734SOL    HW110925   0.549   2.738   6.083 -1.1810 -0.4656  0.4007
 4734SOL    HW210926   0.625   2.845   6.159  1.7557 -3.4846  1.9959
 4735SOL     OW10927   3.684   3.869   4.330  0.6787  0.0040  0.0393
 4735SOL    HW110928   3.676   3.964   4.327 -1.9307 -0.1512 -0.0048
 4735SOL    HW210929   3.647   3.839   4.247  1.6335 -1.0573 -0.0196
 4736SOL     OW10930   3.884   1.459   4.897 -0.5328  0.5636  0.1041
 4736SOL    HW110931   3.970   1.494   4.918  2.0655 -3.3332 -2.6199
 4736SOL    HW210932   3.878   1.379   4.949 -0.7882 -1.0593 -2.2574
 4737SOL     OW10933   1.909   3.043   4.788 -0.1135  0.0171 -0.3860
 4737SOL    HW110934   1.952   3.062   4.705 -0.5480  2.7385 -0.0977
 4737SOL    HW210935   1.980   3.022   4.848  0.3571 -0.2201 -1.0185
 4738SOL     OW10936   2.903   1.924   5.059  0.2973 -0.6458  0.7041
 4738SOL    HW110937   2.943   1.848   5.100 -0.3629 -0.5812  1.4904
 4738SOL    HW210938   2.876   1.980   5.132  0.2029  0.0436  0.1532
 4739SOL     OW10939   1.978   3.813   6.490 -0.0798 -0.5304  0.6678
 4739SOL    HW110940   2.035   3.890   6.482  0.0498 -0.6004  0.9020
 4739SOL    HW210941   1.891   3.849   6.507 -0.2924 -0.3928 -0.6332
 4740SOL     OW10942   1.892   2.794   5.208  0.1520  0.6573 -0.6389
 4740SOL    HW110943   1.875   2.739   5.132  1.1361  1.5016 -1.5103
 4740SOL    HW210944   1.975   2.838   5.187  2.8107 -2.1687  2.6685
 4741SOL     OW10945   4.239   4.071   3.870 -0.7468 -0.0207  0.1560
 4741SOL    HW110946   4.154   4.104   3.839 -0.8411  0.6228  1.0263
 4741SOL    HW210947   4.227   4.064   3.965 -0.1866 -1.0355  0.1566
 4742SOL     OW10948   1.989   3.874   3.125  0.0258  0.8603  0.3751
 4742SOL    HW110949   1.980   3.839   3.214  0.6829 -0.8846 -0.1891
 4742SOL    HW210950   1.902   3.909   3.104 -0.5207  0.0825  1.2305
 4743SOL     OW10951   1.252   0.260   4.941  0.1955 -0.4386 -0.2630
 4743SOL    HW110952   1.333   0.311   4.942 -0.3959  0.5405  0.9585
 4743SOL    HW210953   1.213   0.275   5.028 -3.0722  2.0645 -1.9384
 4744SOL     OW10954   2.407   2.093   3.757  0.1064  0.4437  0.2609
 4744SOL    HW110955   2.486   2.145   3.743  0.1395  0.4651  0.5344
 4744SOL    HW210956   2.376   2.073   3.668 -0.3351  1.5620  0.1423
 4745SOL     OW10957   3.172   0.417   3.211 -0.0047 -0.2695 -0.2731
 4745SOL    HW110958   3.098   0.435   3.269  0.4378 -1.5393  0.7343
 4745SOL    HW210959   3.217   0.502   3.202 -0.6018  0.1413  0.4966
 4746SOL     OW10960   2.365   0.630   4.615  0.4200  0.1370 -0.2683
 4746SOL    HW110961   2.284   0.629   4.565 -0.1594 -0.3989  0.6766
 4746SOL    HW210962   2.427   0.677   4.558 -0.2826 -0.2496 -1.3799
 4747SOL     OW10963   2.531   3.517   5.121  0.1432  0.0908  0.5143
 4747SOL    HW110964   2.571   3.460   5.187 -0.0708  0.9298  1.3909
 4747SOL    HW210965   2.553   3.605   5.149 -3.0723  0.6849  1.5811
 4748SOL     OW10966   0.251   2.266   3.975  0.2071 -0.5307 -0.0565
 4748SOL    HW110967   0.230   2.201   3.908 -0.5670 -0.0599 -0.2715
 4748SOL    HW210968   0.235   2.350   3.934  1.8435 -0.1440  0.0011
 4749SOL     OW10969   0.356   4.173   5.452 -0.3168  0.0255 -0.3814
 4749SOL    HW110970   0.265   4.193   5.433  0.0397  2.7161  0.3324
 4749SOL    HW210971   0.403   4.195   5.372 -0.1113  0.1315 -0.2319
 4750SOL     OW10972   2.616   2.003   5.617 -0.8054 -0.4469  1.0972
 4750SOL    HW110973   2.533   2.031   5.577 -0.2637  0.7554  0.7475
 4750SOL    HW210974   2.594   1.923   5.664 -2.4208  0.4038  1.9041
 4751SOL     OW10975   3.180   3.611   4.553  0.1980 -0.7654 -0.1048
 4751SOL    HW110976   3.240   3.684   4.539  0.6597 -0.8142  1.4304
 4751SOL    HW210977   3.118   3.616   4.481 -0.3486  1.7277  0.4652
 4752SOL     OW10978   0.156   3.917   5.158  0.1719 -0.0807 -0.5139
 4752SOL    HW110979   0.105   3.853   5.208  1.1719  0.5670  1.4251
 4752SOL    HW210980   0.231   3.867   5.125 -0.1313 -0.3659 -0.7709
 4753SOL     OW10981   0.054   0.529   2.812 -0.6514 -0.2000 -0.2755
 4753SOL    HW110982   0.059   0.606   2.756  0.4024 -1.1005 -1.4729
 4753SOL    HW210983   0.139   0.525   2.855 -0.3447 -1.2004 -0.9431
 4754SOL     OW10984   0.912   2.902   5.436  0.0075  0.2407  0.2862
 4754SOL    HW110985   0.967   2.849   5.495  1.3054 -0.2003 -1.2372
 4754SOL    HW210986   0.936   2.992   5.457 -1.3833  0.2426  2.1130
 4755SOL     OW10987   4.260   4.043   3.367  0.3476 -0.8309  0.3123
 4755SOL    HW110988   4.325   4.106   3.337 -0.4609 -0.0285  0.1951
 4755SOL    HW210989   4.218   4.011   3.288 -0.7237  0.1275  0.4643
 4756SOL     OW10990   1.586   0.264   6.299  0.2217  0.3070  0.1337
 4756SOL    HW110991   1.553   0.240   6.385  1.7095  0.3019  0.7402
 4756SOL    HW210992   1.671   0.220   6.293 -0.0122  0.0164 -1.4889
 4757SOL     OW10993   2.889   2.133   2.619 -0.1105  0.0786 -0.1802
 4757SOL    HW110994   2.830   2.077   2.568  0.8923 -0.6575 -0.5832
 4757SOL    HW210995   2.895   2.214   2.569 -0.1279 -0.1633 -0.5816
 4758SOL     OW10996   2.550   3.075   2.954 -0.2008  0.3181 -0.1003
 4758SOL    HW110997   2.503   2.995   2.930  0.2708 -0.2839  0.9295
 4758SOL    HW210998   2.620   3.081   2.889 -0.9000  0.5069 -0.8507
 4759SOL     OW10999   2.419   2.074   4.453  0.1265 -0.0499  0.4520
 4759SOL    HW111000   2.481   2.003   4.472  1.0478  0.8069  0.7315
 4759SOL    HW211001   2.363   2.079   4.530 -0.7603 -1.2844 -0.0842
 4760SOL     OW11002   0.554   2.548   6.018  0.1758 -0.5728  0.5783
 4760SOL    HW111003   0.639   2.517   6.050  0.3264  1.4775  2.3350
 4760SOL    HW211004   0.494   2.474   6.034  1.5326 -2.0002 -0.5734
 4761SOL     OW11005   2.601   2.329   3.109  0.0373 -0.8005 -0.2702
 4761SOL    HW111006   2.653   2.373   3.177 -0.1063 -0.5487 -0.3228
 4761SOL    HW211007   2.557   2.257   3.155 -0.5601 -0.2442  0.0425
 4762SOL     OW11008   3.276   4.112   5.028  0.1201 -0.1231  0.4083
 4762SOL    HW111009   3.287   4.206   5.039 -1.5863  0.1680 -0.0879
 4762SOL    HW211010   3.259   4.100   4.935  1.8227 -1.1278  0.1757
 4763SOL     OW11011   2.684   3.071   4.074 -1.0502  0.1229  0.2637
 4763SOL    HW111012   2.716   3.023   4.151  1.0240  0.0085 -0.6119
 4763SOL    HW211013   2.670   3.003   4.008  1.5694  0.6120 -0.8717
 4764SOL     OW11014   1.218   3.833   3.762 -0.6186 -0.2095 -0.4295
 4764SOL    HW111015   1.235   3.801   3.851  0.2631  0.5692 -0.3018
 4764SOL    HW211016   1.181   3.758   3.716 -0.8435 -0.6972  0.5213
 4765SOL     OW11017   0.047   2.272   6.383  0.2424 -0.6267 -0.5398
 4765SOL    HW111018   0.000   2.290   6.464  0.5963 -2.4932  0.1424
 4765SOL    HW211019  -0.021   2.261   6.317 -0.0694  0.4709 -0.4069
 4766SOL     OW11020   2.843   1.736   5.965 -0.0532 -0.1003  0.1609
 4766SOL    HW111021   2.904   1.663   5.969  0.5770  0.3967  3.9955
 4766SOL    HW211022   2.780   1.718   6.034 -1.6721  1.5443 -0.8020
 4767SOL     OW11023   0.528   4.206   5.918 -0.4136  0.3922 -0.1438
 4767SOL    HW111024   0.513   4.155   5.838  1.2852  0.6843 -0.6875
 4767SOL    HW211025   0.504   4.146   5.989 -0.8287 -0.2810 -0.8267
 4768SOL     OW11026   0.689   3.109   5.162 -0.1475 -0.6457  0.2956
 4768SOL    HW111027   0.615   3.170   5.161  0.0007 -0.4666 -0.0828
 4768SOL    HW211028   0.749   3.142   5.094 -0.7260 -2.0086 -0.9518
 4769SOL     OW11029   1.529   1.130   5.805  0.0201  0.4677 -0.5266
 4769SOL    HW111030   1.548   1.051   5.855 -0.1065  0.8804  0.1936
 4769SOL    HW211031   1.592   1.195   5.837  0.3408  0.5741 -1.3449
 4770SOL     OW11032   0.988   2.867   4.238 -0.0918  0.4479  0.1483
 4770SOL    HW111033   0.935   2.898   4.165 -0.4042 -0.6733 -0.1059
 4770SOL    HW211034   1.020   2.948   4.279 -0.4838  1.1019 -0.7912
 4771SOL     OW11035   0.389   3.323   4.119 -0.4237 -0.1008 -0.4632
 4771SOL    HW111036   0.341   3.368   4.050  0.5078 -0.1417 -1.1548
 4771SOL    HW211037   0.389   3.384   4.193  2.0324  1.7185 -1.8318
 4772SOL     OW11038   0.898   2.634   4.321 -0.2232  0.3638  0.1106
 4772SOL    HW111039   0.903   2.581   4.241 -2.0933  0.9608 -0.4560
 4772SOL    HW211040   0.917   2.723   4.291  1.6275  0.2604  0.8329
 4773SOL     OW11041   4.006   3.471   3.646 -0.2928  0.2055  0.2034
 4773SOL    HW111042   4.096   3.456   3.618 -0.8731 -0.8950 -1.2404
 4773SOL    HW211043   4.005   3.562   3.676  1.2428  0.2936  0.0904
 4774SOL     OW11044   2.829   2.127   4.631 -0.4260 -0.3261  0.2836
 4774SOL    HW111045   2.839   2.158   4.722 -1.6078 -1.1120  0.7056
 4774SOL    HW211046   2.798   2.204   4.583 -0.2636 -0.0295  0.6467
 4775SOL     OW11047   4.048   2.343   4.493 -0.3946 -0.1470  0.0195
 4775SOL    HW111048   4.022   2.283   4.424 -1.2750  0.2592 -0.0125
 4775SOL    HW211049   4.143   2.336   4.497 -0.4370 -1.0219 -0.4520
 4776SOL     OW11050   1.726   2.671   5.614  0.2588  0.0820 -0.4950
 4776SOL    HW111051   1.679   2.597   5.654  0.6399  0.1396  0.0723
 4776SOL    HW211052   1.670   2.746   5.628  0.3153  0.0712 -0.2092
 4777SOL     OW11053   1.796   0.020   4.001 -0.2474  0.1298  0.4477
 4777SOL    HW111054   1.862   0.089   3.992 -0.1171  0.0102  0.4865
 4777SOL    HW211055   1.780   0.013   4.095 -1.7366  1.4973  0.3559
 4778SOL     OW11056   1.630   3.886   4.379 -0.2306 -0.3504 -0.4942
 4778SOL    HW111057   1.558   3.844   4.427 -0.2504  1.2373  0.9368
 4778SOL    HW211058   1.627   3.845   4.292 -1.8606 -1.4419  0.0181
 4779SOL     OW11059   1.789   3.653   3.559 -0.0282  0.2208 -0.1534
 4779SOL    HW111060   1.719   3.719   3.554  0.7556  1.2550  1.3877
 4779SOL    HW211061   1.766   3.601   3.637  1.2780  1.0854  0.8562
 4780SOL     OW11062   2.099   0.314   4.702  0.0953  0.0173  0.5013
 4780SOL    HW111063   2.032   0.356   4.756 -1.1847 -0.2712 -0.8167
 4780SOL    HW211064   2.053   0.245   4.655  1.3752 -0.3504 -0.2607
 4781SOL     OW11065   2.484   2.824   2.877 -0.2819 -0.6023 -0.0021
 4781SOL    HW111066   2.442   2.760   2.935  0.5189  0.9257  2.4051
 4781SOL    HW211067   2.548   2.773   2.827 -1.3873 -2.0695  0.0074
 4782SOL     OW11068   3.127   2.315   5.037  0.4173 -0.5794 -0.2264
 4782SOL    HW111069   3.203   2.262   5.012  0.1916 -1.4650  0.8617
 4782SOL    HW211070   3.143   2.337   5.129 -0.2747 -0.1104 -0.2161
 4783SOL     OW11071   2.080   4.203   6.772  0.6180 -0.1163  0.4111
 4783SOL    HW111072   2.093   4.144   6.846 -0.7264 -1.1015 -0.0930
 4783SOL    HW211073   2.132   4.165   6.701 -0.4450 -0.8915  0.0130
 4784SOL     OW11074   1.554   2.165   3.307 -0.4240 -0.4968  0.2372
 4784SOL    HW111075   1.474   2.134   3.351 -1.3281 -0.6738 -1.4561
 4784SOL    HW211076   1.536   2.154   3.214  1.6212 -0.5793 -0.1876
 4785SOL     OW11077   2.801   0.867   2.351 -0.4029  0.2531 -0.1646
 4785SOL    HW111078   2.808   0.927   2.424  0.5054 -0.1785  0.1195
 4785SOL    HW211079   2.797   0.780   2.391 -2.2155  0.1182 -0.5464
 4786SOL     OW11080   3.508   3.813   2.994  0.2094 -0.1910 -0.0294
 4786SOL    HW111081   3.594   3.772   2.984 -1.3415 -3.4944 -1.6484
 4786SOL    HW211082   3.480   3.786   3.082  0.2587 -0.3246 -0.0540
 4787SOL     OW11083   3.215   3.561   7.185  0.1339 -0.2786 -0.8820
 4787SOL    HW111084   3.273   3.587   7.114 -0.2509  0.5352 -0.9109
 4787SOL    HW211085   3.256   3.484   7.223  0.9902  0.0188 -1.1884
 4788SOL     OW11086   1.868   2.227   6.478  0.0588 -0.5148  0.1125
 4788SOL    HW111087   1.920   2.307   6.474 -1.1159  0.2264 -1.6596
 4788SOL    HW211088   1.902   2.173   6.407 -0.1614 -0.9465  0.3311
 4789SOL     OW11089   1.980   3.083   7.400  0.1483 -0.3140  0.0840
 4789SOL    HW111090   1.990   3.023   7.474  0.1509 -0.3177  0.0805
 4789SOL    HW211091   1.885   3.096   7.392  0.2181  2.3536  2.2486
 4790SOL     OW11092   3.282   3.232   5.998  0.1350  0.6532  0.1927
 4790SOL    HW111093   3.311   3.236   6.089  0.2613 -0.3436  0.2023
 4790SOL    HW211094   3.319   3.310   5.958  2.6900 -0.4516  0.2491
 4791SOL     OW11095   0.187   3.592   5.622 -0.6605  0.4039 -0.2441
 4791SOL    HW111096   0.168   3.499   5.612 -0.8333  0.5545 -1.4674
 4791SOL    HW211097   0.147   3.616   5.706  0.0638 -0.7809  0.4806
 4792SOL     OW11098   2.091   2.677   7.411 -0.0413  0.7435 -0.2680
 4792SOL    HW111099   2.132   2.669   7.497  0.8391  0.0349 -0.7403
 4792SOL    HW211100   2.132   2.755   7.372  2.3167 -0.9486 -1.4566
 4793SOL     OW11101   4.284   2.991   6.180 -0.0712  0.3696  0.4117
 4793SOL    HW111102   4.353   3.054   6.199  0.0233  0.1600  0.7821
 4793SOL    HW211103   4.218   3.006   6.248 -0.7849  1.1362 -0.4324
 4794SOL     OW11104   1.379   2.343   6.100 -0.0886  0.0555  0.2492
 4794SOL    HW111105   1.310   2.338   6.165 -1.0177 -0.3675 -0.7428
 4794SOL    HW211106   1.348   2.291   6.027  2.0278 -1.6074  0.4279
 4795SOL     OW11107   3.617   3.448   5.731 -0.4501 -0.2451 -0.4347
 4795SOL    HW111108   3.549   3.502   5.772 -0.5606 -1.2859  0.8184
 4795SOL    HW211109   3.580   3.360   5.728  0.3309 -0.5749 -1.0051
 4796SOL     OW11110   2.931   3.073   6.567  0.1400 -0.2576  0.2790
 4796SOL    HW111111   3.014   3.086   6.613  0.3569 -0.0664 -0.1612
 4796SOL    HW211112   2.953   3.083   6.475 -0.9206  2.8673  0.2749
 4797SOL     OW11113   3.270   2.879   7.110 -0.0105  0.0337 -0.3530
 4797SOL    HW111114   3.350   2.839   7.144  1.8172  1.9262 -2.1008
 4797SOL    HW211115   3.247   2.826   7.034  0.8629  0.6800 -1.0945
 4798SOL     OW11116   3.649   2.058   7.077  0.5790  0.4393 -0.3680
 4798SOL    HW111117   3.685   2.058   6.989  0.8171 -0.0452 -0.2760
 4798SOL    HW211118   3.623   2.149   7.093 -0.1160  0.3973 -1.1979
 4799SOL     OW11119   2.781   2.448   7.001 -0.3784  0.1106  0.1209
 4799SOL    HW111120   2.709   2.485   7.052 -0.5227 -1.9484  1.5036
 4799SOL    HW211121   2.800   2.364   7.042  1.2959 -0.4499 -1.6263
 4800SOL     OW11122   1.160   3.440   5.670 -0.7670 -0.2122  0.1952
 4800SOL    HW111123   1.239   3.473   5.712 -1.5577  0.9197  0.8485
 4800SOL    HW211124   1.111   3.398   5.741 -1.8199  1.1615  0.3330
 4801SOL     OW11125   2.160   2.098   6.720 -0.4954 -0.3134 -0.5858
 4801SOL    HW111126   2.173   2.183   6.761  0.2430 -0.3054 -0.8358
 4801SOL    HW211127   2.081   2.064   6.762 -1.2586  0.8263 -1.0537
 4802SOL     OW11128   2.205   4.051   7.447 -0.0535 -0.4057 -0.0580
 4802SOL    HW111129   2.236   4.067   7.536  1.3192 -0.1291 -0.5633
 4802SOL    HW211130   2.196   4.139   7.408  0.5338 -0.5586 -0.5616
 4803SOL     OW11131   3.079   3.796   4.748  0.7897 -0.0734 -0.6431
 4803SOL    HW111132   2.990   3.773   4.722  0.0810  0.3395  1.2605
 4803SOL    HW211133   3.135   3.733   4.702 -0.7731 -3.1751  1.3829
 4804SOL     OW11134   3.796   2.884   7.687  0.2031 -0.3022  0.5985
 4804SOL    HW111135   3.746   2.806   7.662  0.6198  0.0898 -1.6564
 4804SOL    HW211136   3.887   2.855   7.686  0.4922  0.4807 -1.6911
 4805SOL     OW11137   3.114   3.286   4.931 -0.1682 -0.0267 -0.2347
 4805SOL    HW111138   3.019   3.278   4.943  0.0523  0.2034  1.9707
 4805SOL    HW211139   3.129   3.255   4.842 -2.3596  0.3519 -0.8048
 4806SOL     OW11140   3.791   3.423   7.120 -0.3855 -0.2845  0.2582
 4806SOL    HW111141   3.810   3.463   7.204  2.1055  0.4998 -0.5865
 4806SOL    HW211142   3.823   3.333   7.128  1.2033  0.1996 -0.2393
 4807SOL     OW11143   0.991   0.072   5.819  0.2640 -1.0568 -0.0157
 4807SOL    HW111144   1.047   0.099   5.891  1.2949 -0.6796 -0.9338
 4807SOL    HW211145   0.919   0.025   5.861 -0.0693  0.6044  1.3868
 4808SOL     OW11146   3.910   0.026   4.375  0.6639  0.0273 -0.2375
 4808SOL    HW111147   3.884   0.067   4.457 -0.6847 -1.1137 -0.0575
 4808SOL    HW211148   4.006   0.027   4.377  0.6648  1.6356  0.4912
 4809SOL     OW11149   3.079   3.008   5.103  0.3847 -0.1578  0.3390
 4809SOL    HW111150   3.005   3.017   5.043 -0.7662 -1.3186  1.5144
 4809SOL    HW211151   3.053   3.057   5.181  1.3166  0.2704  0.4018
 4810SOL     OW11152   0.026   2.102   5.483 -0.5197  0.5521  0.0983
 4810SOL    HW111153   0.016   2.176   5.541  0.0806  0.2918  0.5448
 4810SOL    HW211154   0.110   2.117   5.439  0.2836 -0.5315  1.1978
 4811SOL     OW11155   1.501   3.691   5.944 -0.2232 -0.6821  0.6189
 4811SOL    HW111156   1.586   3.736   5.942 -0.8253  0.5233 -1.4373
 4811SOL    HW211157   1.484   3.675   6.036  1.8289 -0.1430  1.1423
 4812SOL     OW11158   3.292   3.180   5.104  0.1852  0.5585  0.2275
 4812SOL    HW111159   3.261   3.251   5.048  2.2580  0.7207 -0.7899
 4812SOL    HW211160   3.222   3.114   5.101 -0.6712  1.4901 -0.8185
 4813SOL     OW11161   2.380   3.122   5.349  0.4219 -0.3444 -0.4214
 4813SOL    HW111162   2.400   3.037   5.387  1.7550  0.6471  1.3036
 4813SOL    HW211163   2.358   3.177   5.425 -0.2621  0.8770 -1.4687
 4814SOL     OW11164   3.376   3.094   3.499 -0.3744 -0.5632  0.5610
 4814SOL    HW111165   3.366   3.013   3.448 -1.8929  1.2976 -2.3794
 4814SOL    HW211166   3.466   3.121   3.482 -0.8654  0.0389 -1.2880
 4815SOL     OW11167   3.595   2.555   6.396  0.0722 -0.0130  0.5033
 4815SOL    HW111168   3.658   2.596   6.455  2.2046 -0.8648 -1.0544
 4815SOL    HW211169   3.647   2.529   6.320 -2.2090 -0.6698 -0.9275
 4816SOL     OW11170   3.195   2.425   7.460  0.0681 -0.4532  0.4046
 4816SOL    HW111171   3.181   2.519   7.450 -0.7810 -0.7235 -1.3436
 4816SOL    HW211172   3.178   2.408   7.553  2.0321  1.3664  1.1859
 4817SOL     OW11173   0.183   3.184   6.307  0.0599 -0.6484 -0.0202
 4817SOL    HW111174   0.227   3.269   6.299 -2.5840  1.1231  2.2932
 4817SOL    HW211175   0.215   3.148   6.390 -0.3181 -0.9781 -0.0153
 4818SOL     OW11176   3.291   0.004   7.528  0.2215  0.3035 -0.0672
 4818SOL    HW111177   3.270   0.030   7.438  1.9821  1.7001 -0.1225
 4818SOL    HW211178   3.285  -0.092   7.527 -0.7160  0.3468 -1.4032
 4819SOL     OW11179   2.935   2.611   6.385 -0.3522 -0.0433  0.1444
 4819SOL    HW111180   2.925   2.576   6.474  1.4620 -0.0480  0.3757
 4819SOL    HW211181   2.913   2.537   6.328 -0.9314 -0.2154  0.5759
 4820SOL     OW11182   2.118   2.849   4.790  0.1420 -0.2307 -0.0531
 4820SOL    HW111183   2.043   2.798   4.760  0.1044  0.1990 -0.7172
 4820SOL    HW211184   2.171   2.863   4.711  0.1079  0.8122  0.0907
 4821SOL     OW11185   3.438   0.578   5.060 -0.9141 -0.5241 -0.3638
 4821SOL    HW111186   3.379   0.503   5.057 -3.1133  0.9948  1.5867
 4821SOL    HW211187   3.383   0.654   5.042  0.3187  0.9933  1.7209
 4822SOL     OW11188   2.964   3.131   7.436  0.3863 -0.5854 -0.4121
 4822SOL    HW111189   3.058   3.145   7.445  0.6470 -2.3768 -0.1043
 4822SOL    HW211190   2.956   3.059   7.373 -0.8066 -0.1867 -0.7538
 4823SOL     OW11191   3.724   3.715   6.383  0.3621  0.0270  0.6964
 4823SOL    HW111192   3.630   3.710   6.399  0.1657  0.7802 -0.1737
 4823SOL    HW211193   3.764   3.684   6.465 -0.6300 -2.2173  0.3993
 4824SOL     OW11194   2.225   2.417   7.692  0.4438 -0.2295  0.6977
 4824SOL    HW111195   2.224   2.328   7.728  0.8610  0.0520  1.4416
 4824SOL    HW211196   2.317   2.431   7.668  0.1298 -0.4931 -0.7191
 4825SOL     OW11197   2.959   4.265   7.374 -0.2130 -0.1124 -0.1943
 4825SOL    HW111198   2.869   4.231   7.375 -0.9017  1.4972  1.9079
 4825SOL    HW211199   3.012   4.193   7.342 -2.1784 -1.3236 -0.9023
 4826SOL     OW11200   4.201   2.319   6.881 -0.3825  0.3576  0.0622
 4826SOL    HW111201   4.208   2.385   6.951 -0.8692 -0.6448  1.0898
 4826SOL    HW211202   4.143   2.252   6.917  0.3093 -0.7684 -0.8510
 4827SOL     OW11203   2.977   0.665   7.428  0.1802 -0.0455 -0.3737
 4827SOL    HW111204   2.896   0.628   7.393 -0.7809  1.6913 -0.1228
 4827SOL    HW211205   2.969   0.654   7.523 -0.0047  0.5329 -0.3139
 4828SOL     OW11206   3.114   2.406   5.904 -0.4813 -0.0238  0.6610
 4828SOL    HW111207   3.121   2.389   5.810 -1.8658 -0.2514  0.5726
 4828SOL    HW211208   3.139   2.498   5.913 -2.4537  0.6619 -0.2788
 4829SOL     OW11209   1.441   0.850   6.740 -0.2618  0.0227 -0.3823
 4829SOL    HW111210   1.499   0.787   6.699  0.4833  1.2689 -1.3337
 4829SOL    HW211211   1.381   0.877   6.670 -2.4261 -1.6553  0.7127
 4830SOL     OW11212   2.616   2.725   5.003  0.0841 -0.0131 -0.1508
 4830SOL    HW111213   2.603   2.804   4.951 -1.4332  0.5673  1.0281
 4830SOL    HW211214   2.586   2.653   4.947 -0.3064  0.4636 -0.5553
 4831SOL     OW11215   1.839   3.120   4.101  0.0993  0.3510 -0.1035
 4831SOL    HW111216   1.920   3.076   4.127  0.5584 -0.0412 -2.0389
 4831SOL    HW211217   1.863   3.173   4.025 -1.2099  1.1748  0.0301
 4832SOL     OW11218   2.902   3.412   5.942 -0.5282  0.2037  0.4413
 4832SOL    HW111219   2.816   3.408   5.900  0.2605 -1.1415 -1.1770
 4832SOL    HW211220   2.959   3.450   5.875  0.6965 -1.5923  0.4121
 4833SOL     OW11221   3.522   3.181   5.707  0.3165 -0.1871  0.3464
 4833SOL    HW111222   3.518   3.163   5.613 -0.5086 -0.0369  0.3470
 4833SOL    HW211223   3.588   3.120   5.740 -2.0405 -3.0069  0.2915
 4834SOL     OW11224   2.551   3.790   6.587  0.7343 -0.1604  0.2865
 4834SOL    HW111225   2.514   3.745   6.511 -0.1022  0.8808  0.0408
 4834SOL    HW211226   2.640   3.813   6.560  0.4381  0.2250 -0.4066
 4835SOL     OW11227   2.485   1.357   5.372  0.5108  0.5127  0.1159
 4835SOL    HW111228   2.489   1.359   5.277  1.4537 -0.9414  0.0951
 4835SOL    HW211229   2.423   1.286   5.392 -0.1198  1.1781  0.6003
 4836SOL     OW11230   0.229   1.493   5.179 -0.1416 -0.3390 -0.5658
 4836SOL    HW111231   0.299   1.538   5.132  0.7335  0.0781  1.0406
 4836SOL    HW211232   0.166   1.561   5.202 -0.2055 -0.4108 -0.5254
 4837SOL     OW11233   2.105   2.329   7.112 -0.0675 -0.6400  0.2509
 4837SOL    HW111234   2.048   2.398   7.146 -1.2108 -1.0314 -0.8193
 4837SOL    HW211235   2.091   2.255   7.171 -1.5718 -1.1139 -0.6477
 4838SOL     OW11236   4.030   2.069   4.750  0.7023  0.1742  0.5936
 4838SOL    HW111237   4.054   2.161   4.737  0.1319  0.3199  0.5400
 4838SOL    HW211238   4.028   2.032   4.661 -1.9756  0.8622  0.2819
 4839SOL     OW11239   0.009   1.071   6.532  0.2227  0.2927  0.1631
 4839SOL    HW111240   0.002   1.019   6.612  0.1148  0.8356  0.5082
 4839SOL    HW211241   0.087   1.125   6.544 -0.0722  0.7341  0.1132
 4840SOL     OW11242   3.140   0.891   7.370 -0.1627 -0.1486  0.0837
 4840SOL    HW111243   3.087   0.813   7.356  0.8546 -1.0461  1.0991
 4840SOL    HW211244   3.096   0.937   7.443  0.1129 -0.5790  0.5236
 4841SOL     OW11245   2.083   3.581   5.911  0.2184 -0.5714 -0.3962
 4841SOL    HW111246   2.135   3.503   5.926 -0.5909 -0.6551  2.4962
 4841SOL    HW211247   1.992   3.552   5.919 -0.0904  0.7447  1.7464
 4842SOL     OW11248   3.352   2.915   7.401 -0.2582 -0.6434 -0.1311
 4842SOL    HW111249   3.404   2.899   7.480  1.2255  2.2055 -0.4138
 4842SOL    HW211250   3.401   2.873   7.331  1.0630  0.9253 -0.1958
 4843SOL     OW11251   2.129   1.957   7.711  0.0961 -0.0656 -0.1585
 4843SOL    HW111252   2.197   2.008   7.756  0.0341 -0.0823 -0.0450
 4843SOL    HW211253   2.124   1.995   7.623  0.3998 -0.2012 -0.2343
 4844SOL     OW11254   3.620   0.485   6.618  0.0194  0.3292 -0.2110
 4844SOL    HW111255   3.551   0.513   6.559 -1.0719  1.8174  1.6646
 4844SOL    HW211256   3.658   0.566   6.651  0.9539 -0.4532  0.7217
 4845SOL     OW11257   2.321   2.487   7.381  0.1496 -0.6631  0.2249
 4845SOL    HW111258   2.289   2.410   7.429  0.0619 -0.0324  1.2188
 4845SOL    HW211259   2.245   2.545   7.375  0.6696  0.1562  1.1886
 4846SOL     OW11260   2.154   1.260   5.729  0.1784 -0.1056 -0.0423
 4846SOL    HW111261   2.192   1.342   5.761 -1.5216  1.5623 -1.9938
 4846SOL    HW211262   2.212   1.233   5.658 -0.1204  0.3199 -0.4580
 4847SOL     OW11263   2.792   1.667   7.213  0.0551  0.1062 -0.4143
 4847SOL    HW111264   2.868   1.673   7.156  0.3660 -1.5261 -0.2143
 4847SOL    HW211265   2.718   1.691   7.157  0.5779  0.5334 -0.9329
 4848SOL     OW11266   3.376   1.743   5.012  0.0869 -0.3069  0.2098
 4848SOL    HW111267   3.313   1.815   5.014  0.0165 -0.3650  2.3085
 4848SOL    HW211268   3.336   1.674   5.065  0.5024 -1.6452 -1.1104
 4849SOL     OW11269   3.511   1.965   5.295 -0.2523 -0.1843 -0.3146
 4849SOL    HW111270   3.596   1.986   5.334 -0.6530 -0.3680  0.7170
 4849SOL    HW211271   3.529   1.891   5.237  0.4764  0.4833 -0.9596
 4850SOL     OW11272   3.004   0.035   5.708  0.1920  0.3042  0.0360
 4850SOL    HW111273   2.941  -0.037   5.712 -1.9125  2.0678  0.5386
 4850SOL    HW211274   3.077   0.007   5.763 -1.3734 -0.7235  1.6625
 4851SOL     OW11275   4.150   0.997   6.357 -0.3781  0.4669  0.1155
 4851SOL    HW111276   4.233   1.004   6.404  0.9430  0.6768 -2.0680
 4851SOL    HW211277   4.091   1.056   6.402  0.5937  0.1698  1.8516
 4852SOL     OW11278   2.547   2.720   7.066  0.0917  0.2858 -0.1292
 4852SOL    HW111279   2.504   2.737   7.149  0.7056  2.0929 -0.1435
 4852SOL    HW211280   2.511   2.786   7.006  0.9750  0.1725 -0.8115
 4853SOL     OW11281   3.448   0.286   6.173 -0.4921 -0.0805 -0.1485
 4853SOL    HW111282   3.471   0.259   6.262  0.5107 -1.2743 -0.7485
 4853SOL    HW211283   3.358   0.317   6.180  0.1343  1.5785  1.6268
 4854SOL     OW11284   2.957   3.192   6.285 -0.0728 -0.1406  0.1998
 4854SOL    HW111285   2.960   3.165   6.194 -2.9349 -2.3382  0.6312
 4854SOL    HW211286   2.867   3.221   6.299  0.8178  2.1457  1.8782
 4855SOL     OW11287   2.012   0.463   6.435  0.2685 -0.5263 -0.2083
 4855SOL    HW111288   2.001   0.493   6.344 -0.1546 -0.5940 -0.1825
 4855SOL    HW211289   1.938   0.501   6.482  0.3539 -0.6849  0.0591
 4856SOL     OW11290   3.735   2.909   4.406  0.5473  0.1720 -0.2867
 4856SOL    HW111291   3.676   2.984   4.417  0.9027  0.4043  0.0403
 4856SOL    HW211292   3.697   2.842   4.463  0.1664  0.0618 -0.6631
 4857SOL     OW11293   2.764   2.060   5.245 -0.0544  0.6770 -0.2774
 4857SOL    HW111294   2.735   1.986   5.299 -0.9584 -0.3404 -2.0623
 4857SOL    HW211295   2.684   2.107   5.223 -0.0308 -0.1549 -2.4134
 4858SOL     OW11296   3.627   1.599   7.420  0.0292 -0.0185 -0.5469
 4858SOL    HW111297   3.707   1.565   7.379 -1.2827 -0.4468 -2.9517
 4858SOL    HW211298   3.559   1.586   7.353 -1.4306  3.3180  0.1028
 4859SOL     OW11299   3.417   0.695   7.281 -0.1591 -0.7898 -0.2828
 4859SOL    HW111300   3.408   0.651   7.196  1.1479  0.0872 -0.9228
 4859SOL    HW211301   3.372   0.778   7.269  0.0515 -0.6540 -0.1190
 4860SOL     OW11302   0.581   2.577   6.677 -0.1024 -0.3797 -0.0328
 4860SOL    HW111303   0.591   2.486   6.649 -0.8561 -0.2333 -0.8212
 4860SOL    HW211304   0.638   2.627   6.619  0.3981 -0.3474  0.4728
 4861SOL     OW11305   0.301   2.374   6.350 -0.4402 -0.5077  0.2267
 4861SOL    HW111306   0.223   2.320   6.358 -0.1837 -0.9423 -0.1352
 4861SOL    HW211307   0.294   2.437   6.422 -0.6659 -1.1293  0.7664
 4862SOL     OW11308   1.683   1.904   4.010 -0.5005  0.1000 -0.3049
 4862SOL    HW111309   1.652   1.995   4.010 -0.5057  0.0977 -0.2104
 4862SOL    HW211310   1.660   1.870   4.096 -3.5032 -1.0022 -1.3903
 4863SOL     OW11311   2.416   2.029   5.233  0.5227  0.3782  0.0601
 4863SOL    HW111312   2.399   1.936   5.246  2.6694 -0.3354 -1.5489
 4863SOL    HW211313   2.425   2.038   5.138 -1.2717  2.5996  0.0051
 4864SOL     OW11314   3.274   3.450   7.709 -0.0775 -0.4150  0.2783
 4864SOL    HW111315   3.188   3.410   7.720  0.1180 -0.2244  3.3978
 4864SOL    HW211316   3.336   3.378   7.719  0.1643 -0.1032  1.1377
 4865SOL     OW11317   3.559   2.591   5.474 -0.4989 -0.2413 -0.5028
 4865SOL    HW111318   3.561   2.495   5.478  3.2368 -0.5549 -3.7653
 4865SOL    HW211319   3.514   2.610   5.392 -0.4171  0.7711 -0.3181
 4866SOL     OW11320   3.421   3.491   7.466  0.4717 -0.0386  0.3798
 4866SOL    HW111321   3.354   3.483   7.534 -0.7264  0.5093 -0.6975
 4866SOL    HW211322   3.399   3.423   7.402  0.2851  0.8387 -0.5102
 4867SOL     OW11323   3.428   3.216   6.282  0.2000 -0.0037 -0.1947
 4867SOL    HW111324   3.409   3.215   6.376  2.7435  0.3332  0.3984
 4867SOL    HW211325   3.454   3.126   6.262 -0.5499 -0.1290 -0.6664
 4868SOL     OW11326   3.112   4.100   6.837 -0.1327  0.3673  0.0128
 4868SOL    HW111327   3.034   4.114   6.891  0.5189  1.0725  0.8086
 4868SOL    HW211328   3.080   4.109   6.747 -1.0199  0.3401  0.3090
 4869SOL     OW11329   0.267   3.932   5.914  0.1081 -0.5584  0.1075
 4869SOL    HW111330   0.330   3.964   5.979 -0.0447 -0.2413  0.1010
 4869SOL    HW211331   0.300   3.964   5.830  0.1452 -0.7193  0.0594
 4870SOL     OW11332   3.938   3.153   7.182  0.2661  0.1564  0.4175
 4870SOL    HW111333   4.011   3.212   7.161  0.5922  0.0753  1.2649
 4870SOL    HW211334   3.972   3.099   7.253 -0.1398 -0.8459 -0.1305
 4871SOL     OW11335   2.359   3.579   7.717 -0.3379 -0.3210  0.2082
 4871SOL    HW111336   2.355   3.564   7.623  0.0123  1.5158 -0.1359
 4871SOL    HW211337   2.267   3.579   7.745 -0.3784 -2.4928  0.1826
 4872SOL     OW11338   2.045   3.824   6.936  0.6467 -0.2093  0.6561
 4872SOL    HW111339   1.950   3.817   6.945  0.6342 -1.7201 -0.2749
 4872SOL    HW211340   2.067   3.759   6.869  2.0422  1.9233 -1.1029
 4873SOL     OW11341   1.594   2.869   4.151 -0.0214 -0.5557  0.3594
 4873SOL    HW111342   1.576   2.894   4.242 -1.9879  0.3538 -0.2136
 4873SOL    HW211343   1.681   2.905   4.133  0.6395 -1.2242  2.0183
 4874SOL     OW11344   2.695   3.242   6.236  0.9335  0.0033 -0.2528
 4874SOL    HW111345   2.654   3.171   6.186  0.0897  0.7165 -0.6083
 4874SOL    HW211346   2.639   3.318   6.219  0.5592  0.2545  1.8495
 4875SOL     OW11347   0.410   4.079   5.689 -0.3576  0.3347 -0.3019
 4875SOL    HW111348   0.379   4.135   5.618 -0.6155 -1.1531 -1.4344
 4875SOL    HW211349   0.445   4.002   5.644 -1.2315 -1.0052  1.2194
 4876SOL     OW11350   3.328   3.344   7.269  0.1848  0.2334 -0.1811
 4876SOL    HW111351   3.286   3.284   7.331  0.2706 -0.6038 -0.9099
 4876SOL    HW211352   3.360   3.287   7.199  0.4334  1.1191 -0.8020
 4877SOL     OW11353   3.402   2.726   6.517 -0.1143 -0.2906 -0.3740
 4877SOL    HW111354   3.313   2.741   6.484  0.1734 -0.1050 -1.0863
 4877SOL    HW211355   3.442   2.667   6.453 -0.3265 -1.9290  0.9407
 4878SOL     OW11356   0.937   2.474   7.141  0.2782  0.2844  0.1678
 4878SOL    HW111357   1.026   2.463   7.108 -0.2695 -2.8063 -0.5044
 4878SOL    HW211358   0.929   2.408   7.210 -1.1838  1.2810  1.0115
 4879SOL     OW11359   3.405   3.289   6.891  0.0234  0.2203  0.4215
 4879SOL    HW111360   3.393   3.267   6.983 -1.4142 -2.4660 -0.2926
 4879SOL    HW211361   3.324   3.261   6.848  0.0219  2.7582 -1.5188
 4880SOL     OW11362   2.894   3.393   7.433  0.3332  0.0563  0.0450
 4880SOL    HW111363   2.899   3.297   7.431 -0.7420 -0.0073 -0.8513
 4880SOL    HW211364   2.900   3.419   7.341 -1.7846  0.6653  0.0037
 4881SOL     OW11365   2.254   3.756   5.757  0.0593 -0.1788  0.0643
 4881SOL    HW111366   2.189   3.758   5.827  0.7034  0.5813  0.6658
 4881SOL    HW211367   2.234   3.676   5.708 -0.4172 -0.7312  1.1063
 4882SOL     OW11368   4.134   2.696   6.153  0.4754  0.6837  0.7552
 4882SOL    HW111369   4.138   2.721   6.246  0.8781  3.7585  0.0236
 4882SOL    HW211370   4.215   2.647   6.139  0.8554  0.9546  1.8596
 4883SOL     OW11371   3.648   3.078   6.528  0.3222  0.1822  0.3237
 4883SOL    HW111372   3.739   3.098   6.551  0.6716 -1.8128  0.8834
 4883SOL    HW211373   3.654   3.033   6.444 -0.0398 -0.7313  0.7748
 4884SOL     OW11374   1.770   3.104   5.008  0.0559  0.7619  0.0566
 4884SOL    HW111375   1.713   3.027   5.017 -0.0298  0.8121 -0.0605
 4884SOL    HW211376   1.816   3.089   4.926  1.0320  0.1732  0.6852
 4885SOL     OW11377   3.011   2.323   5.651 -0.4626  0.3476  0.5020
 4885SOL    HW111378   3.011   2.270   5.730  0.5783 -1.4744 -0.6479
 4885SOL    HW211379   2.943   2.284   5.596 -1.3718  1.7677  0.5436
 4886SOL     OW11380   3.421   2.322   4.542 -0.2028  0.4076  0.2689
 4886SOL    HW111381   3.456   2.254   4.599 -0.8922  0.7933  1.1869
 4886SOL    HW211382   3.495   2.381   4.526  0.4168 -0.5784 -0.5960
 4887SOL     OW11383   4.164   3.768   5.851  0.2017  0.1022  0.0823
 4887SOL    HW111384   4.077   3.806   5.836  0.0484 -0.0730  0.5203
 4887SOL    HW211385   4.214   3.839   5.891  0.1395  0.0725  0.2111
 4888SOL     OW11386   4.063   3.864   6.735  0.1127 -0.0834 -0.4527
 4888SOL    HW111387   4.027   3.945   6.771 -0.2054 -0.4471  0.0737
 4888SOL    HW211388   4.157   3.870   6.749 -0.1404 -1.0623  2.3218
 4889SOL     OW11389   2.467   3.162   6.771 -0.0968 -0.5769 -0.2892
 4889SOL    HW111390   2.393   3.160   6.711  0.7237  2.3836 -1.5648
 4889SOL    HW211391   2.450   3.237   6.829  0.2645 -1.9667  1.7522
 4890SOL     OW11392   3.317   2.212   5.990  0.4949  0.3637  0.0522
 4890SOL    HW111393   3.261   2.285   5.961 -1.3100 -1.1889 -0.6363
 4890SOL    HW211394   3.295   2.200   6.082  1.2900  1.0801  0.3472
 4891SOL     OW11395   2.001   2.340   4.361 -0.3833 -0.2189  0.2876
 4891SOL    HW111396   2.061   2.294   4.303  0.4110  1.2788 -0.1242
 4891SOL    HW211397   1.990   2.282   4.436  1.4177 -0.6172  0.2719
 4892SOL     OW11398   0.525   0.985   4.791 -0.1572  0.5470  0.4996
 4892SOL    HW111399   0.617   0.981   4.816 -0.1937  0.2235  0.5786
 4892SOL    HW211400   0.490   1.059   4.842 -0.6363 -1.1539  2.7723
 4893SOL     OW11401   3.198   2.448   4.664  0.0234  0.5708  0.1538
 4893SOL    HW111402   3.270   2.409   4.614  0.5336  0.2166  1.1564
 4893SOL    HW211403   3.122   2.395   4.642 -0.1075  1.3521 -1.4433
 4894SOL     OW11404   2.977   3.618   4.350  0.1095  0.2530 -0.7233
 4894SOL    HW111405   2.933   3.609   4.265  1.0234  0.1728 -1.1927
 4894SOL    HW211406   2.917   3.672   4.402 -0.9423 -0.5484 -1.0590
 4895SOL     OW11407   2.330   3.488   7.432 -0.5910  0.5247  0.7521
 4895SOL    HW111408   2.385   3.411   7.447 -2.0584 -1.3191 -2.4507
 4895SOL    HW211409   2.240   3.455   7.440 -1.2532  1.8004 -0.9189
 4896SOL     OW11410   3.617   1.837   5.057 -0.3664 -0.1343  0.4549
 4896SOL    HW111411   3.529   1.805   5.038 -0.4829  0.6365 -0.3517
 4896SOL    HW211412   3.633   1.904   4.991  1.6928 -1.7971 -0.8872
 4897SOL     OW11413   0.839   3.353   6.281 -0.1043 -0.4228 -0.8968
 4897SOL    HW111414   0.879   3.281   6.231 -0.5248 -1.2782 -0.0351
 4897SOL    HW211415   0.745   3.341   6.269 -0.2198 -0.7266  0.1798
 4898SOL     OW11416   1.262   4.119   6.099  0.2898 -0.0863 -0.3076
 4898SOL    HW111417   1.220   4.112   6.185  1.4615  1.8541  0.4958
 4898SOL    HW211418   1.264   4.030   6.066 -1.3514 -0.7175  1.1005
 4899SOL     OW11419   2.786   2.861   7.059  0.2871  0.2235  0.3544
 4899SOL    HW111420   2.713   2.801   7.075 -0.4082  0.2612 -2.2811
 4899SOL    HW211421   2.822   2.834   6.974  2.6360  0.9475  1.0283
 4900SOL     OW11422   3.863   3.389   6.350 -0.1084  0.0928  0.2183
 4900SOL    HW111423   3.771   3.411   6.362 -0.2715  0.7333 -1.7844
 4900SOL    HW211424   3.894   3.367   6.438 -1.1046  3.9458  1.7496
 4901SOL     OW11425   3.952   2.254   5.063  0.2818 -0.2651  0.3815
 4901SOL    HW111426   3.930   2.308   5.138 -0.6274 -0.2844  0.1352
 4901SOL    HW211427   3.871   2.209   5.041  0.7042 -0.7496 -0.2134
 4902SOL     OW11428   2.950   3.518   7.138  0.0304 -0.3716 -0.0151
 4902SOL    HW111429   2.896   3.570   7.078  0.7833  0.1293 -0.2839
 4902SOL    HW211430   3.038   3.556   7.129  0.5049 -1.3899  0.1418
 4903SOL     OW11431   2.660   0.261   6.319 -0.1068  0.1432  0.1415
 4903SOL    HW111432   2.605   0.285   6.394 -0.4975  1.7416 -0.6256
 4903SOL    HW211433   2.609   0.285   6.242  0.6822 -0.5999 -0.6466
 4904SOL     OW11434   2.302   2.758   5.958  0.3046 -0.1457  0.0581
 4904SOL    HW111435   2.306   2.850   5.929 -0.9153 -0.1223 -0.0786
 4904SOL    HW211436   2.369   2.714   5.906  0.0416  0.4341 -0.7960
 4905SOL     OW11437   3.614   3.280   4.683 -0.1924 -0.5041 -0.0907
 4905SOL    HW111438   3.529   3.317   4.707  0.2430  0.4058  0.0807
 4905SOL    HW211439   3.593   3.209   4.623 -1.0521  0.0440 -0.4552
 4906SOL     OW11440   1.629   2.352   6.431 -0.5027  0.0914  0.6023
 4906SOL    HW111441   1.637   2.396   6.346 -1.2992 -1.3899 -0.2676
 4906SOL    HW211442   1.720   2.330   6.454 -0.2999  0.2744  0.0102
 4907SOL     OW11443   3.480   2.274   7.003 -0.1657  0.4970  0.1021
 4907SOL    HW111444   3.550   2.284   6.938 -0.1942  2.1278  0.2820
 4907SOL    HW211445   3.399   2.277   6.953 -0.1532 -1.2909 -0.0945
 4908SOL     OW11446   3.128   3.027   4.513  0.0434 -0.6012  0.0895
 4908SOL    HW111447   3.056   3.065   4.564  0.5966  1.7269 -0.7684
 4908SOL    HW211448   3.101   3.037   4.422  0.9854 -0.6699 -0.2086
 4909SOL     OW11449   3.845   3.653   6.622  0.4557 -0.3100  0.5704
 4909SOL    HW111450   3.894   3.720   6.669  1.0988  0.0829 -0.6237
 4909SOL    HW211451   3.759   3.652   6.663  0.5416  1.0342  0.8043
 4910SOL     OW11452   3.171   3.626   5.919 -0.7103 -0.2913 -0.8358
 4910SOL    HW111453   3.166   3.678   5.999  3.8446  1.6078 -1.4935
 4910SOL    HW211454   3.126   3.679   5.853  0.0548  0.7432 -0.5552
 4911SOL     OW11455   3.700   2.403   5.749  0.6238 -0.5823  0.1548
 4911SOL    HW111456   3.792   2.430   5.745  0.5750 -0.2438  1.0915
 4911SOL    HW211457   3.674   2.421   5.840 -0.9424  1.2467 -0.5951
 4912SOL     OW11458   3.471   3.912   6.326  0.0974  0.3511 -0.1867
 4912SOL    HW111459   3.437   3.862   6.400 -2.3817 -0.2137 -1.5701
 4912SOL    HW211460   3.466   4.003   6.355  0.8546  0.0552  0.9392
 4913SOL     OW11461   2.640   1.511   4.608 -0.4979  0.0000 -0.2732
 4913SOL    HW111462   2.729   1.544   4.625 -0.8173  0.3293  0.8770
 4913SOL    HW211463   2.583   1.580   4.643 -1.1906 -1.2020  1.0464
 4914SOL     OW11464   4.124   3.301   7.357  0.0206 -0.1232  0.1998
 4914SOL    HW111465   4.110   3.206   7.359  1.0806 -0.2785  0.6380
 4914SOL    HW211466   4.163   3.322   7.442 -0.4409  0.7562  0.2157
 4915SOL     OW11467   3.835   3.715   6.139  0.2006 -0.0738  0.3759
 4915SOL    HW111468   3.831   3.809   6.120  0.8247  0.2421  1.6740
 4915SOL    HW211469   3.794   3.706   6.225  0.4230 -0.9473  0.4038
 4916SOL     OW11470   2.779   2.437   5.470  0.0263 -0.1744  0.0451
 4916SOL    HW111471   2.841   2.466   5.402 -1.0952 -1.1949 -1.4823
 4916SOL    HW211472   2.761   2.516   5.520 -1.1963  1.3475 -2.5802
 4917SOL     OW11473   4.230   2.963   6.612  0.0211 -0.2397  0.7178
 4917SOL    HW111474   4.145   2.950   6.655 -1.8944 -0.9747 -2.8994
 4917SOL    HW211475   4.226   3.052   6.578  0.6016 -0.3661  0.3078
 4918SOL     OW11476   2.887   2.545   5.787  0.8315  0.3381 -0.1477
 4918SOL    HW111477   2.967   2.590   5.813  0.4449  0.4050  0.9937
 4918SOL    HW211478   2.915   2.481   5.722  1.7659  0.5562  0.0302
 4919SOL     OW11479   3.789   3.088   6.933 -0.5485 -0.5290 -0.3177
 4919SOL    HW111480   3.728   3.018   6.957  0.0092 -0.8893  0.0975
 4919SOL    HW211481   3.828   3.116   7.016  1.3375 -1.7246 -0.7212
 4920SOL     OW11482   3.273   3.826   5.409 -0.2775  0.0014  0.4588
 4920SOL    HW111483   3.327   3.749   5.424  2.1585  1.5059  0.0870
 4920SOL    HW211484   3.284   3.845   5.315 -1.1647  0.5918  0.4589
 4921SOL     OW11485   3.508   4.223   6.804 -0.1513 -0.6074  0.4877
 4921SOL    HW111486   3.557   4.142   6.816  0.3467 -0.3453  0.2672
 4921SOL    HW211487   3.427   4.210   6.853 -1.9040 -2.7792 -2.6861
 4922SOL     OW11488   3.997   3.991   5.275 -0.1772 -0.1659  0.4390
 4922SOL    HW111489   4.063   3.979   5.343  0.8282  2.5527  0.0680
 4922SOL    HW211490   3.916   3.958   5.314  0.6769 -0.1724  2.3288
 4923SOL     OW11491   3.312   3.542   6.798 -0.0802 -1.0988  0.2866
 4923SOL    HW111492   3.358   3.469   6.838 -1.6567 -1.9963  0.5393
 4923SOL    HW211493   3.284   3.509   6.712 -0.3723 -0.6259  0.1912
 4924SOL     OW11494   3.953   3.074   5.316 -0.4639 -0.7512 -0.2263
 4924SOL    HW111495   3.865   3.068   5.281 -0.2782 -0.9530 -0.6616
 4924SOL    HW211496   3.944   3.128   5.395 -1.2143 -2.0349  0.5856
 4925SOL     OW11497   2.870   0.316   6.611 -0.5861  0.2478  0.4370
 4925SOL    HW111498   2.915   0.315   6.695 -0.2302  0.1226  0.2444
 4925SOL    HW211499   2.928   0.363   6.552 -0.6548 -0.0061  0.1610
 4926SOL     OW11500   2.987   3.267   6.994 -0.2058  0.2854 -0.4777
 4926SOL    HW111501   2.919   3.199   6.998 -0.1351  0.2682  1.0302
 4926SOL    HW211502   2.948   3.342   7.039  0.8845  0.1571  0.7350
 4927SOL     OW11503   1.444   3.838   5.049  0.2023  0.0202 -0.2350
 4927SOL    HW111504   1.403   3.768   5.100  0.7664 -0.2258 -0.1114
 4927SOL    HW211505   1.380   3.909   5.050 -0.1697 -0.3140  0.0538
 4928SOL     OW11506   3.769   1.090   7.200 -0.0552 -0.6285  0.0590
 4928SOL    HW111507   3.814   1.041   7.131  0.2776 -0.6338  0.2769
 4928SOL    HW211508   3.679   1.097   7.169  0.2986  0.2673 -0.8734
 4929SOL     OW11509   2.989   2.386   6.802 -0.1565  0.1099 -0.2597
 4929SOL    HW111510   2.954   2.413   6.717 -1.7709  0.5252  0.4883
 4929SOL    HW211511   2.934   2.432   6.866  0.4771 -0.8521  1.0251
 4930SOL     OW11512   2.866   3.556   4.117 -0.0911  0.0547 -0.0558
 4930SOL    HW111513   2.928   3.525   4.051 -1.9018 -0.7791 -1.4519
 4930SOL    HW211514   2.814   3.478   4.140  0.9982  0.0867  3.0669
 4931SOL     OW11515   1.408   3.355   4.652 -0.6804 -0.3750 -0.4424
 4931SOL    HW111516   1.394   3.263   4.631 -0.6520 -0.3980 -0.3597
 4931SOL    HW211517   1.463   3.354   4.731  0.6549 -0.2900 -1.3281
 4932SOL     OW11518   2.157   2.686   7.675 -0.2535  0.5195  0.0717
 4932SOL    HW111519   2.236   2.731   7.703  0.1163  0.9838 -1.6001
 4932SOL    HW211520   2.171   2.595   7.700 -0.7130  1.1322  2.8722
 4933SOL     OW11521   3.576   2.684   5.999 -0.0332  0.5912  0.1506
 4933SOL    HW111522   3.645   2.714   6.058  0.0189 -1.0915  0.9818
 4933SOL    HW211523   3.533   2.765   5.970  1.3606  1.5808  0.7193
 4934SOL     OW11524   3.301   1.614   7.027  0.1161  0.6283  0.8464
 4934SOL    HW111525   3.318   1.551   6.957 -1.9356  0.7566  0.1560
 4934SOL    HW211526   3.340   1.695   6.995  0.1028  0.4399  0.3303
 4935SOL     OW11527   2.915   2.125   6.889 -0.2581 -0.2176  0.0440
 4935SOL    HW111528   2.976   2.187   6.849  0.9181 -1.3948 -0.0077
 4935SOL    HW211529   2.904   2.157   6.979  1.2907 -0.5900  0.3882
 4936SOL     OW11530   2.647   3.441   5.856  0.2518  0.4203 -0.3126
 4936SOL    HW111531   2.615   3.531   5.845 -0.6254  0.1287 -0.2179
 4936SOL    HW211532   2.622   3.417   5.945 -0.9504 -0.4745 -0.8727
 4937SOL     OW11533   1.246   1.771   7.324  0.3463 -0.2860  0.4904
 4937SOL    HW111534   1.323   1.721   7.349  1.1982  0.0792 -1.2730
 4937SOL    HW211535   1.211   1.726   7.247 -1.1874 -0.3975  1.1956
 4938SOL     OW11536   2.365   2.162   7.701 -0.3078 -0.2507 -0.1217
 4938SOL    HW111537   2.420   2.240   7.686 -0.5752  0.0354  0.3549
 4938SOL    HW211538   2.427   2.094   7.726 -0.2150  0.2552  1.1176
 4939SOL     OW11539   3.413   2.933   6.295  0.1708  0.1751  0.3686
 4939SOL    HW111540   3.383   2.904   6.381  0.5096  0.8009  0.7095
 4939SOL    HW211541   3.508   2.920   6.297  0.3789  1.5442  0.6519
 4940SOL     OW11542   0.035   3.566   3.740 -0.0751  0.6889  0.6395
 4940SOL    HW111543   0.029   3.657   3.713  2.3596  0.9782  0.8669
 4940SOL    HW211544   0.110   3.532   3.692 -1.1622 -1.3486  0.2599
 4941SOL     OW11545   3.302   2.030   5.741 -0.4507  0.4622 -0.2439
 4941SOL    HW111546   3.270   2.090   5.808 -0.7297  2.2094 -1.8665
 4941SOL    HW211547   3.397   2.038   5.744 -0.1448 -2.4151  2.4855
 4942SOL     OW11548   3.808   0.440   5.769 -0.0851 -0.7263  0.1824
 4942SOL    HW111549   3.743   0.450   5.839 -1.0778 -0.6156 -0.7409
 4942SOL    HW211550   3.856   0.524   5.769 -2.0939  0.5050 -1.2383
 4943SOL     OW11551   2.664   2.280   5.681  0.1147 -0.1400 -0.1651
 4943SOL    HW111552   2.717   2.314   5.610  1.3854  1.5323  1.5099
 4943SOL    HW211553   2.644   2.190   5.654  2.9345 -0.5249 -1.3529
 4944SOL     OW11554   1.804   3.728   6.955 -0.3881  0.2392 -0.1790
 4944SOL    HW111555   1.754   3.787   7.011 -1.2033 -1.2672  0.7602
 4944SOL    HW211556   1.793   3.642   6.996 -0.4436 -0.8025 -2.2843
 4945SOL     OW11557   2.976   1.766   7.389 -0.4976 -0.4479  0.0353
 4945SOL    HW111558   3.059   1.725   7.363 -0.7515 -1.2186  0.3908
 4945SOL    HW211559   2.912   1.732   7.327 -0.5168  0.3045 -0.3641
 4946SOL     OW11560   3.638   0.318   7.176 -0.2030 -0.3656 -0.2672
 4946SOL    HW111561   3.610   0.352   7.091 -1.8123 -0.8996  0.0150
 4946SOL    HW211562   3.569   0.345   7.237  1.1807  0.4693  0.9976
 4947SOL     OW11563   0.168   3.348   6.722 -0.1264  0.0772  0.6150
 4947SOL    HW111564   0.139   3.378   6.636  1.8263  0.7192  0.1187
 4947SOL    HW211565   0.199   3.428   6.766  0.8524 -0.5392  1.0827
 4948SOL     OW11566   3.141   0.095   5.435 -0.1416  0.3862 -0.1873
 4948SOL    HW111567   3.151   0.012   5.387 -1.8639  0.3550 -0.5657
 4948SOL    HW211568   3.102   0.069   5.518 -1.3955  0.8725 -0.6103
 4949SOL     OW11569   3.331   1.874   4.678  0.5663 -0.1327  0.2825
 4949SOL    HW111570   3.307   1.811   4.610 -0.8276 -0.0160  0.6376
 4949SOL    HW211571   3.274   1.852   4.752  0.9714  0.7291  0.8685
 4950SOL     OW11572   2.525   4.097   6.587 -0.8350  0.1204 -0.0176
 4950SOL    HW111573   2.521   4.188   6.559  2.7961  0.4297 -0.0216
 4950SOL    HW211574   2.522   4.047   6.506  2.4189  0.6369 -0.5911
 4951SOL     OW11575   2.634   2.496   6.770  0.5101  0.1031 -0.3538
 4951SOL    HW111576   2.542   2.488   6.797  0.8130 -1.0693  0.4318
 4951SOL    HW211577   2.683   2.484   6.851  1.4071 -1.5632 -1.1077
 4952SOL     OW11578   4.002   3.640   3.912  0.1365  0.3110  0.0672
 4952SOL    HW111579   4.050   3.669   3.990 -0.8161 -0.2351  0.8967
 4952SOL    HW211580   3.922   3.602   3.948 -1.1432  1.6235 -1.2793
 4953SOL     OW11581   4.194   0.091   5.204 -0.1692 -0.4974  0.5312
 4953SOL    HW111582   4.284   0.124   5.206 -0.2893 -0.1641  2.4650
 4953SOL    HW211583   4.145   0.161   5.161  0.5353 -0.8277 -0.8407
 4954SOL     OW11584   3.779   2.056   5.551 -0.3106 -0.2914 -0.6021
 4954SOL    HW111585   3.818   2.032   5.467 -0.8585 -1.4188 -0.5593
 4954SOL    HW211586   3.743   1.974   5.585 -2.4108  0.5991 -0.4849
 4955SOL     OW11587   4.135   4.048   4.816  0.0949  0.5879  0.4200
 4955SOL    HW111588   4.144   4.067   4.909  1.2400  2.3212  0.0125
 4955SOL    HW211589   4.061   3.988   4.811  1.2619 -1.1716  2.6032
 4956SOL     OW11590   3.053   3.378   5.670 -0.1063  0.2047  0.8042
 4956SOL    HW111591   3.035   3.291   5.634 -2.0343  2.1169 -3.6139
 4956SOL    HW211592   3.145   3.394   5.646  0.6924 -0.9460  2.8102
 4957SOL     OW11593   0.520   3.171   7.477  0.1267  0.3138 -0.0258
 4957SOL    HW111594   0.447   3.204   7.528 -0.5305 -0.7133 -0.2656
 4957SOL    HW211595   0.490   3.175   7.386  0.0262 -0.8930 -0.0628
 4958SOL     OW11596   1.632   2.543   7.688 -0.2155 -0.0255  0.0036
 4958SOL    HW111597   1.718   2.581   7.703 -0.3586  0.1536  0.3865
 4958SOL    HW211598   1.570   2.609   7.721 -0.5245  0.1484 -0.8939
 4959SOL     OW11599   3.401   1.986   7.156  0.6260  0.1829  0.0260
 4959SOL    HW111600   3.349   2.060   7.188 -0.1392  0.5290 -1.8964
 4959SOL    HW211601   3.490   2.021   7.150  0.4136  0.7116 -0.1182
 4960SOL     OW11602   2.346   2.881   7.709 -0.3543  0.2493 -0.3187
 4960SOL    HW111603   2.400   2.946   7.754  0.1436  0.1378 -0.7459
 4960SOL    HW211604   2.335   2.916   7.621  1.7773 -1.2405 -1.2745
 4961SOL     OW11605   1.583   2.861   7.684 -0.2299  0.8479 -0.4425
 4961SOL    HW111606   1.592   2.955   7.668  1.5087  0.5754 -1.3235
 4961SOL    HW211607   1.662   2.837   7.732  1.0590 -0.7099 -3.1126
 4962SOL     OW11608   3.538   3.737   7.661  0.2483 -0.7058 -0.5703
 4962SOL    HW111609   3.526   3.827   7.690  3.1369 -0.4889  0.3225
 4962SOL    HW211610   3.457   3.692   7.684 -1.0784  1.5120 -0.6072
 4963SOL     OW11611   2.949   2.586   7.650  0.1240  0.1316 -0.2437
 4963SOL    HW111612   2.881   2.531   7.689 -0.5017 -0.6094 -2.2570
 4963SOL    HW211613   3.030   2.557   7.691 -0.3651 -1.3871 -0.2803
 4964SOL     OW11614   2.439   2.731   7.295  0.1222  0.1645  0.4370
 4964SOL    HW111615   2.426   2.653   7.349  3.0175  0.5271  1.8259
 4964SOL    HW211616   2.417   2.804   7.353 -0.9399  0.4681 -0.3177
 4965SOL     OW11617   2.811   4.067   7.313  0.0141 -0.0410  0.0412
 4965SOL    HW111618   2.759   4.020   7.247  0.3044 -1.8451  1.0231
 4965SOL    HW211619   2.751   4.078   7.387  0.1971  0.4523  0.1174
 4966SOL     OW11620   2.329   3.246   7.730 -0.4176 -0.3990  0.6194
 4966SOL    HW111621   2.379   3.175   7.771  0.8440  0.8041  1.2471
 4966SOL    HW211622   2.395   3.300   7.687 -1.2800  0.7427  0.6921
 4967SOL     OW11623   2.550   1.371   7.431 -0.1035  0.2208  0.0936
 4967SOL    HW111624   2.520   1.355   7.520  0.9902 -0.3824  0.3657
 4967SOL    HW211625   2.549   1.467   7.423  3.3212  0.5783  2.0764
 4968SOL     OW11626   2.566   3.370   7.633 -0.2848 -0.6845 -0.1471
 4968SOL    HW111627   2.645   3.368   7.686  0.7110  0.5779 -1.4890
 4968SOL    HW211628   2.526   3.454   7.653 -1.5195 -1.4596  0.7839
 4969SOL     OW11629   1.692   1.765   7.701 -0.4587  0.4146  0.0460
 4969SOL    HW111630   1.605   1.788   7.733 -0.6988  0.3740 -0.5600
 4969SOL    HW211631   1.734   1.848   7.680 -0.8875  0.3711 -1.0212
 4970SOL     OW11632   0.677   2.794   6.538 -0.0370 -0.2028 -0.4559
 4970SOL    HW111633   0.760   2.832   6.511  0.0965  0.7965  1.2287
 4970SOL    HW211634   0.641   2.856   6.602 -0.4613 -2.2073  1.3731
 4971SOL     OW11635   2.022   2.936   7.625  0.2251  0.1867 -0.1281
 4971SOL    HW111636   2.060   2.853   7.652 -1.2072 -1.1630 -2.0075
 4971SOL    HW211637   2.063   3.001   7.683  2.2148 -1.6464  0.6626
 4972SOL     OW11638   3.603   2.665   7.653 -0.5971  1.0504 -0.5546
 4972SOL    HW111639   3.690   2.626   7.653 -1.7847 -1.8400 -1.7701
 4972SOL    HW211640   3.583   2.681   7.561 -0.6605  3.6094 -0.1886
 4973SOL     OW11641   2.494   1.935   7.738  0.4715 -0.5809 -0.2352
 4973SOL    HW111642   2.484   1.853   7.785 -0.6378 -0.5611 -0.4190
 4973SOL    HW211643   2.489   1.911   7.646  0.3606 -0.3401 -0.2944
 4974SOL     OW11644   0.020   2.335   7.704  0.1914 -0.1687 -0.3978
 4974SOL    HW111645   0.074   2.413   7.715  1.2029 -0.7479 -1.1299
 4974SOL    HW211646   0.080   2.262   7.717 -0.6234 -0.8344 -0.2820
 4975SOL     OW11647   2.433   3.202   7.456  0.4034 -0.8385 -0.0220
 4975SOL    HW111648   2.512   3.182   7.405  1.5479  1.5914  0.6032
 4975SOL    HW211649   2.465   3.210   7.546 -0.6464 -0.3454  0.3191
 4976SOL     OW11650   2.500   2.393   7.651 -0.0231  0.3208 -0.1327
 4976SOL    HW111651   2.513   2.476   7.697  0.5204  0.3982 -0.4206
 4976SOL    HW211652   2.574   2.387   7.591 -0.1528 -0.2937 -0.2355
 4977SOL     OW11653   2.968   2.369   6.151 -0.1443 -0.1968  0.4198
 4977SOL    HW111654   3.034   2.433   6.177  0.8462 -2.0448  2.7830
 4977SOL    HW211655   2.983   2.357   6.057 -0.9348  3.5463 -0.3257
 4978SOL     OW11656   3.549   2.889   6.732 -0.0902  0.1229  0.3223
 4978SOL    HW111657   3.532   2.830   6.659  0.0024 -1.1726  1.3094
 4978SOL    HW211658   3.591   2.965   6.693  2.0779 -1.5052 -0.6988
 4979SOL     OW11659   2.035   3.223   7.708 -0.6663  0.2488 -0.1465
 4979SOL    HW111660   1.998   3.280   7.641 -1.1651 -2.3501 -2.2599
 4979SOL    HW211661   2.129   3.231   7.698 -0.7005  1.5734  0.4283
 4980SOL     OW11662   2.872   3.806   7.711 -0.2194  0.0997 -1.0005
 4980SOL    HW111663   2.932   3.734   7.731 -0.9276  0.4677  3.3469
 4980SOL    HW211664   2.791   3.762   7.684  0.1970 -0.6106 -1.1230
 4981SOL     OW11665   2.996   2.910   7.254 -0.1641 -0.8407  0.2164
 4981SOL    HW111666   2.936   2.903   7.180  2.2867 -2.0273 -1.7913
 4981SOL    HW211667   3.077   2.945   7.216  0.5028  0.7508  2.8106
 4982SOL     OW11668   3.797   2.665   6.527 -0.0772  0.3957 -0.5371
 4982SOL    HW111669   3.869   2.706   6.479 -1.1932  1.9666 -0.9816
 4982SOL    HW211670   3.817   2.682   6.619  1.1652 -1.0519 -0.5176
 4983SOL     OW11671   2.148   1.692   7.677 -0.4129  0.1816  0.1386
 4983SOL    HW111672   2.163   1.783   7.703 -0.6587  0.5641 -0.9826
 4983SOL    HW211673   2.149   1.695   7.581 -1.2533 -0.8534  0.0837
 4984SOL     OW11674   1.703   2.220   7.687 -0.3586 -0.2671  0.2327
 4984SOL    HW111675   1.613   2.216   7.720 -0.5626  1.2281 -0.0595
 4984SOL    HW211676   1.715   2.312   7.664  1.5172 -0.2869  1.0137
 4985SOL     OW11677   2.567   3.062   7.712 -0.0756 -0.0011  0.1972
 4985SOL    HW111678   2.599   3.039   7.625 -2.1132 -1.1502 -0.3043
 4985SOL    HW211679   2.644   3.056   7.769  1.4763  1.5216 -1.5937
 4986SOL     OW11680   3.912   3.304   6.587  0.0776 -0.0406  0.1141
 4986SOL    HW111681   3.994   3.339   6.621  0.5576  0.5455 -1.5552
 4986SOL    HW211682   3.844   3.347   6.640  0.7523  1.7338 -0.3921
 4987SOL     OW11683   2.563   2.664   7.720  0.0338  0.1184  0.1010
 4987SOL    HW111684   2.501   2.737   7.724  0.1071  0.1380  0.9836
 4987SOL    HW211685   2.649   2.705   7.711 -0.0387  0.0963 -0.8494
 4988SOL     OW11686   2.771   2.821   7.705  0.2559  0.2403  0.5942
 4988SOL    HW111687   2.795   2.894   7.648 -1.0550  0.3191  0.1029
 4988SOL    HW211688   2.814   2.745   7.667  0.9213  0.5988  0.6060
 4989SOL     OW11689   3.900   1.358   6.858  0.1657  0.0494 -0.8089
 4989SOL    HW111690   3.932   1.343   6.947  1.0642  0.5296 -1.0463
 4989SOL    HW211691   3.808   1.329   6.861  0.6101 -1.4119 -0.1399
 4990SOL     OW11692   2.836   4.116   7.700  0.2366 -0.0694  0.2341
 4990SOL    HW111693   2.913   4.146   7.652 -0.5374 -0.2170 -1.1349
 4990SOL    HW211694   2.856   4.025   7.724  1.0827  0.3562  1.1986
 4991SOL     OW11695   3.013   3.628   0.678  0.7864 -0.8192 -0.7896
 4991SOL    HW111696   3.033   3.596   0.766 -1.3368 -0.8141 -0.2633
 4991SOL    HW211697   3.082   3.693   0.660 -0.4732  1.6090  2.2106
 4992SOL     OW11698   1.709   4.318   0.703  0.6309 -0.0881  0.5535
 4992SOL    HW111699   1.750   4.232   0.696  0.9599  0.1730 -1.6659
 4992SOL    HW211700   1.781   4.380   0.697  0.2337  0.3516  0.2200
 4993SOL     OW11701   4.009   2.593   2.117  0.4030  0.5727  0.3768
 4993SOL    HW111702   3.926   2.640   2.112 -0.3293 -0.6983  0.2669
 4993SOL    HW211703   4.052   2.613   2.034 -0.2890  0.3367 -0.0436
 4994SOL     OW11704   3.688   0.129   0.933 -0.1306  0.4124 -0.0494
 4994SOL    HW111705   3.614   0.079   0.968  0.8130 -1.2614 -0.3259
 4994SOL    HW211706   3.673   0.130   0.838 -0.5668  1.3847  0.0234
 4995SOL     OW11707   3.908   3.688   0.960 -0.0938  0.0444  0.3948
 4995SOL    HW111708   3.995   3.654   0.981  0.4204  1.2089  0.2084
 4995SOL    HW211709   3.902   3.682   0.865  0.0040  0.4826  0.3609
 4996SOL     OW11710   2.473   0.239   0.701  0.1215  0.1241  0.4104
 4996SOL    HW111711   2.522   0.312   0.664  1.4467 -1.4097 -1.0822
 4996SOL    HW211712   2.489   0.244   0.795  1.5250  0.8247  0.1621
 4997SOL     OW11713   3.780   4.120   1.395 -0.0129 -0.2554 -0.2164
 4997SOL    HW111714   3.739   4.185   1.337  0.9622  0.8152  0.2492
 4997SOL    HW211715   3.727   4.041   1.383 -2.3442  1.0962  0.5342
 4998SOL     OW11716   1.848   0.348   1.586 -0.0393  0.6891 -0.0370
 4998SOL    HW111717   1.895   0.412   1.639  0.9906  0.9999 -1.2934
 4998SOL    HW211718   1.916   0.297   1.543 -0.8572  0.1392 -0.7142
 4999SOL     OW11719   4.116   0.968   2.523  0.3396 -0.2748 -0.7257
 4999SOL    HW111720   4.183   0.946   2.458  0.2503 -0.5121 -0.7376
 4999SOL    HW211721   4.164   0.974   2.605  0.9430  2.6770 -1.1920
 5000SOL     OW11722   2.129   4.057   0.703 -0.0375 -0.1588 -0.1738
 5000SOL    HW111723   2.106   4.149   0.711 -1.9035 -0.5250 -0.7774
 5000SOL    HW211724   2.203   4.055   0.642 -1.6665  0.7799 -2.3068
 5001SOL     OW11725   2.655   3.233   1.493 -0.2008  0.0109 -0.1116
 5001SOL    HW111726   2.676   3.173   1.565 -1.1371 -0.8140 -0.5092
 5001SOL    HW211727   2.735   3.285   1.481  0.4520 -0.8096  0.5743
 5002SOL     OW11728   3.384   0.207   0.882  0.1736  0.1023 -0.5059
 5002SOL    HW111729   3.366   0.263   0.957  1.3772 -0.9111  0.5880
 5002SOL    HW211730   3.443   0.259   0.827 -0.0890  0.5420 -0.3813
 5003SOL     OW11731   1.472   0.161   0.678  0.1339 -0.1736 -0.8019
 5003SOL    HW111732   1.402   0.096   0.672 -0.2046 -0.2314  2.1901
 5003SOL    HW211733   1.549   0.110   0.706  0.3937  0.4000 -0.4463
 5004SOL     OW11734   2.435   4.079   0.665  0.0966  1.0428 -0.2290
 5004SOL    HW111735   2.452   3.985   0.657 -1.7949  0.6317  0.0637
 5004SOL    HW211736   2.512   4.120   0.626  0.9229 -0.6225 -0.4682
 5005SOL     OW11737   3.958   3.747   1.481  0.0360  0.2670  0.2638
 5005SOL    HW111738   3.975   3.801   1.558 -0.3895 -0.1343  0.6422
 5005SOL    HW211739   3.877   3.782   1.445  0.0892  0.2774  0.1542
 5006SOL     OW11740   3.579   3.824   2.405 -0.0786  0.5858 -0.2900
 5006SOL    HW111741   3.492   3.785   2.399 -0.3015  1.2346 -1.6377
 5006SOL    HW211742   3.628   3.765   2.462 -1.1145 -0.3272 -0.3227
 5007SOL     OW11743   2.383   4.230   1.897 -0.0660  0.3736  0.0559
 5007SOL    HW111744   2.364   4.323   1.908  1.1133  0.5772  0.5591
 5007SOL    HW211745   2.299   4.190   1.874 -1.0293  1.2332  1.8661
 5008SOL     OW11746   3.003   3.489   0.900  0.3965 -0.4853  0.4024
 5008SOL    HW111747   3.069   3.468   0.965  0.9389  0.1953  0.0840
 5008SOL    HW211748   2.940   3.544   0.947  0.7451 -0.0617  0.3846
 5009SOL     OW11749   3.923   0.662   1.276 -0.3180  0.4567 -0.4364
 5009SOL    HW111750   3.950   0.622   1.359 -0.1591 -1.7054 -1.4517
 5009SOL    HW211751   3.831   0.638   1.267 -0.0460 -0.3043 -1.3725
 5010SOL     OW11752   2.172   3.062   0.695  0.3112  0.1047 -0.0309
 5010SOL    HW111753   2.222   2.984   0.672  1.2299  0.6095  0.1929
 5010SOL    HW211754   2.233   3.134   0.683 -0.1274  0.6729  0.9969
 5011SOL     OW11755   2.962   0.483   2.130 -0.1408  0.3899  0.0564
 5011SOL    HW111756   2.933   0.558   2.079  0.1382  1.0448  0.8326
 5011SOL    HW211757   2.955   0.511   2.221 -0.4957 -0.7020  0.3850
 5012SOL     OW11758   1.871   3.798   2.277  0.4247  0.1835  0.2060
 5012SOL    HW111759   1.860   3.763   2.189  0.6363 -0.1274  0.2997
 5012SOL    HW211760   1.783   3.797   2.315  0.5703 -1.2864  0.5866
 5013SOL     OW11761   3.800   0.333   1.536  0.3204 -0.2940  0.1619
 5013SOL    HW111762   3.724   0.278   1.553 -1.3739  1.7475 -0.3296
 5013SOL    HW211763   3.830   0.307   1.449 -0.7238 -0.1834 -0.2508
 5014SOL     OW11764   2.985   4.225   0.950 -0.1098 -0.5367  0.2873
 5014SOL    HW111765   3.001   4.260   0.863 -0.4696 -0.9935  0.0300
 5014SOL    HW211766   2.895   4.250   0.970 -1.1343 -2.9768 -0.7622
 5015SOL     OW11767   4.115   3.917   0.663  0.0473 -0.2309 -0.1572
 5015SOL    HW111768   4.056   3.992   0.666 -0.3025 -0.4521 -1.1486
 5015SOL    HW211769   4.149   3.909   0.752  0.6552  1.5538 -0.1884
 5016SOL     OW11770   2.133   2.424   1.595 -0.3766 -0.2302  0.0386
 5016SOL    HW111771   2.046   2.459   1.582 -0.5852 -0.6547  0.2681
 5016SOL    HW211772   2.182   2.495   1.637 -0.6510 -0.0396  0.0372
 5017SOL     OW11773   2.797   0.506   1.053 -0.5916  1.2196 -0.2644
 5017SOL    HW111774   2.871   0.535   0.999  0.1852 -0.9638 -0.4412
 5017SOL    HW211775   2.824   0.526   1.143  1.8215 -2.5058  0.0444
 5018SOL     OW11776   2.825   3.676   1.012 -0.0998  0.5235  0.0293
 5018SOL    HW111777   2.739   3.714   0.996 -0.0435  0.6052 -0.0840
 5018SOL    HW211778   2.865   3.733   1.078  0.1270  0.8803 -0.4038
 5019SOL     OW11779   3.158   3.452   1.122  0.0196  0.0745  0.1541
 5019SOL    HW111780   3.244   3.431   1.159 -0.5473  0.1366  1.5364
 5019SOL    HW211781   3.116   3.508   1.187 -0.0838  2.2519 -1.6419
 5020SOL     OW11782   2.883   3.409   1.503  0.1502 -0.2642 -0.2237
 5020SOL    HW111783   2.887   3.466   1.426  0.2305 -1.6335 -1.2622
 5020SOL    HW211784   2.952   3.442   1.561  3.1565 -1.8288 -2.6178
 5021SOL     OW11785   3.079   1.663   2.569 -0.1659  0.2596 -0.8516
 5021SOL    HW111786   3.050   1.727   2.634  0.4517  0.4395 -0.7474
 5021SOL    HW211787   3.148   1.613   2.613 -0.0125  0.1222 -1.2397
 5022SOL     OW11788   3.668   4.142   0.659 -0.6700 -0.6660  0.3344
 5022SOL    HW111789   3.665   4.049   0.637  0.4720 -0.4547 -0.8690
 5022SOL    HW211790   3.629   4.147   0.746 -2.6006 -1.9900 -0.3921
 5023SOL     OW11791   2.979   3.559   1.307  0.6922 -0.0504  0.0982
 5023SOL    HW111792   2.937   3.642   1.290  0.2942  0.4130  2.8408
 5023SOL    HW211793   2.948   3.501   1.237 -0.5240  1.5861 -0.7819
 5024SOL     OW11794   1.262   3.653   1.545  0.0990  0.1103 -0.1710
 5024SOL    HW111795   1.265   3.708   1.623  3.1584 -0.8333  0.5312
 5024SOL    HW211796   1.259   3.715   1.472 -0.0922  1.0787  0.6351
 5025SOL     OW11797   0.290   0.625   2.472 -0.0028 -0.0203  0.4756
 5025SOL    HW111798   0.361   0.562   2.466 -0.8641 -1.3608  2.9415
 5025SOL    HW211799   0.250   0.626   2.385  2.1340 -0.2492 -0.5536
 5026SOL     OW11800   2.869   0.195   3.552 -0.4365 -0.5734 -0.0148
 5026SOL    HW111801   2.869   0.100   3.541  0.5296 -0.6681  0.7100
 5026SOL    HW211802   2.777   0.220   3.543 -0.6862 -1.5582 -0.3316
 5027SOL     OW11803   0.459   3.729   3.893 -0.2281  0.0288  0.4005
 5027SOL    HW111804   0.531   3.765   3.842  0.2605 -2.2031 -0.6294
 5027SOL    HW211805   0.412   3.805   3.926  1.1742  1.5528 -0.9397
 5028SOL     OW11806   3.553   4.066   2.535  0.2399  0.3007 -0.1212
 5028SOL    HW111807   3.579   3.980   2.500  1.0735  0.1796  0.7533
 5028SOL    HW211808   3.602   4.129   2.482 -0.0404  0.2208 -0.4801
 5029SOL     OW11809   3.696   0.552   3.902  0.1688  0.0539 -0.1186
 5029SOL    HW111810   3.711   0.627   3.845  1.4196 -0.5138 -0.5786
 5029SOL    HW211811   3.781   0.534   3.942 -0.8082  0.8477  2.5102
 5030SOL     OW11812   1.733   2.895   2.774 -0.5556  0.2590 -0.3270
 5030SOL    HW111813   1.646   2.933   2.764 -0.7951  0.3133  1.5975
 5030SOL    HW211814   1.732   2.817   2.718 -1.6479  0.5579 -0.7363
 5031SOL     OW11815   0.084   0.888   4.524  0.2415 -0.2987  0.1654
 5031SOL    HW111816   0.028   0.944   4.578  0.2175 -1.1961  1.0879
 5031SOL    HW211817   0.157   0.864   4.580  1.0637  0.0552 -0.7230
 5032SOL     OW11818   3.134   1.125   5.091 -0.1961  0.7211 -0.0878
 5032SOL    HW111819   3.230   1.125   5.099  0.2278 -1.4082 -3.0492
 5032SOL    HW211820   3.106   1.051   5.145 -0.0775  0.7870  0.0661
 5033SOL     OW11821   1.866   1.268   3.077 -0.1840 -0.3864  0.2175
 5033SOL    HW111822   1.866   1.352   3.123 -1.2715  0.3053 -0.9685
 5033SOL    HW211823   1.923   1.212   3.129  1.6600  1.4639  0.3405
 5034SOL     OW11824   2.362   3.158   2.663  0.1624  0.1883  0.5051
 5034SOL    HW111825   2.318   3.119   2.587  0.3279  2.5071 -0.8840
 5034SOL    HW211826   2.295   3.211   2.705  0.1614 -0.8221  1.8689
 5035SOL     OW11827   2.973   2.464   3.490  0.0005  0.4547  0.4324
 5035SOL    HW111828   2.888   2.475   3.532 -0.7952 -0.5490 -0.8826
 5035SOL    HW211829   2.953   2.444   3.399  1.6589  0.4476  0.0417
 5036SOL     OW11830   2.817   0.397   3.166 -0.0390  0.0418 -0.2135
 5036SOL    HW111831   2.823   0.308   3.131 -0.1697  0.1955 -0.6310
 5036SOL    HW211832   2.843   0.454   3.093 -1.2000  0.4184 -0.3571
 5037SOL     OW11833   3.787   0.239   2.124 -0.0120 -0.5248 -0.0762
 5037SOL    HW111834   3.714   0.301   2.125  0.1036 -0.3252 -1.7155
 5037SOL    HW211835   3.753   0.163   2.075  0.1161 -1.4440  1.2100
 5038SOL     OW11836   2.601   1.325   1.825 -0.1085  0.0702  0.3595
 5038SOL    HW111837   2.589   1.268   1.901 -0.4990  0.5108  0.6373
 5038SOL    HW211838   2.610   1.265   1.751 -1.3901 -0.3642  0.5199
 5039SOL     OW11839   3.114   3.902   4.256 -0.7980 -0.1376  0.5086
 5039SOL    HW111840   3.100   3.977   4.314 -0.5254 -0.1568  0.5995
 5039SOL    HW211841   3.170   3.843   4.306  0.9312  0.6333 -0.4160
 5040SOL     OW11842   1.854   0.178   3.389 -0.0641 -0.3539 -0.1609
 5040SOL    HW111843   1.908   0.206   3.315  0.3913  2.4279  1.1160
 5040SOL    HW211844   1.766   0.170   3.352  0.0087  1.7263 -0.9119
 5041SOL     OW11845   2.471   3.688   2.536 -0.1253 -0.2045 -0.0827
 5041SOL    HW111846   2.547   3.689   2.593 -0.3995 -0.7862  0.3069
 5041SOL    HW211847   2.431   3.774   2.547 -0.3927 -0.4438  0.9104
 5042SOL     OW11848   1.790   4.094   2.887  0.0355 -0.1505  0.3829
 5042SOL    HW111849   1.882   4.070   2.876  0.1759  0.0235  1.1442
 5042SOL    HW211850   1.792   4.188   2.904 -0.3876  0.1073 -0.9103
 5043SOL     OW11851   3.685   4.127   1.700  0.6609  0.1303  0.4727
 5043SOL    HW111852   3.739   4.181   1.642  1.2512 -0.2893  0.6179
 5043SOL    HW211853   3.734   4.045   1.709  0.4642  0.0943  1.3656
 5044SOL     OW11854   3.441   4.050   0.904 -0.1421  0.4343  0.5821
 5044SOL    HW111855   3.424   4.127   0.957  0.1685  0.7592  0.2175
 5044SOL    HW211856   3.535   4.035   0.913 -0.0985  0.4554  0.1740
 5045SOL     OW11857   1.320   3.848   1.722 -0.3665  0.0809  0.0136
 5045SOL    HW111858   1.262   3.924   1.722  0.5353  0.8088 -1.6070
 5045SOL    HW211859   1.399   3.878   1.768 -0.3942 -0.1940  0.2437
 5046SOL     OW11860   2.570   0.490   2.358 -0.2005 -0.4680  0.0369
 5046SOL    HW111861   2.567   0.505   2.452 -1.8320  0.1904 -0.0935
 5046SOL    HW211862   2.508   0.419   2.342 -2.6593  1.7295 -0.8817
 5047SOL     OW11863   3.150   3.026   1.679  0.4276 -0.5101 -0.1029
 5047SOL    HW111864   3.078   3.023   1.742 -0.3828  0.1520 -0.9753
 5047SOL    HW211865   3.137   2.950   1.623 -0.8117  0.6995 -1.5300
 5048SOL     OW11866   2.504   3.492   2.091  0.7376  0.1496  0.2387
 5048SOL    HW111867   2.490   3.401   2.067  4.4899 -0.6959  0.6065
 5048SOL    HW211868   2.523   3.536   2.009 -0.0895  0.4157  0.1793
 5049SOL     OW11869   3.072   2.978   3.769 -0.1125  0.3509  0.1824
 5049SOL    HW111870   3.039   2.899   3.812 -1.4727  0.6222 -0.3211
 5049SOL    HW211871   3.162   2.987   3.800 -0.8052  0.1279  2.4002
 5050SOL     OW11872   2.157   3.985   1.589 -0.3848  0.1043  0.0501
 5050SOL    HW111873   2.103   3.906   1.589  2.1895 -1.8034  1.2995
 5050SOL    HW211874   2.157   4.015   1.680 -1.3507  1.6565 -0.4065
 5051SOL     OW11875   2.766   0.318   4.115  0.2639  0.5038 -0.3726
 5051SOL    HW111876   2.723   0.358   4.039  1.1565 -0.0987 -1.2248
 5051SOL    HW211877   2.695   0.275   4.163 -0.3714  1.2288 -0.6505
 5052SOL     OW11878   3.303   0.058   5.046  1.1310  0.1505  0.2417
 5052SOL    HW111879   3.380   0.107   5.074  0.1069  1.6991  0.5235
 5052SOL    HW211880   3.240   0.126   5.021  0.7649 -1.1072 -2.5431
 5053SOL     OW11881   1.189   0.243   4.016 -0.0767 -0.1711 -0.8703
 5053SOL    HW111882   1.279   0.217   3.996 -0.4206 -2.2203 -0.0663
 5053SOL    HW211883   1.137   0.165   3.994 -1.2950  0.0009  1.2212
 5054SOL     OW11884   1.803   0.090   1.945 -0.5954  0.2129 -0.0693
 5054SOL    HW111885   1.816   0.062   1.855 -0.4943 -0.1136  0.0433
 5054SOL    HW211886   1.732   0.152   1.941 -0.2409  0.6002 -0.4465
 5055SOL     OW11887   3.025   4.212   2.837  0.2201  0.5022  0.1421
 5055SOL    HW111888   3.087   4.236   2.905  2.0820  0.5865 -1.4901
 5055SOL    HW211889   3.033   4.117   2.828  2.1296  0.7719 -1.8104
 5056SOL     OW11890   2.191   4.317   3.047  0.4019 -0.7591  0.2675
 5056SOL    HW111891   2.250   4.242   3.039  1.0361 -0.2305 -0.1257
 5056SOL    HW211892   2.171   4.342   2.957  0.1499 -0.4850  0.3967
 5057SOL     OW11893   1.141   2.756   3.150  0.0208 -0.4907  0.0606
 5057SOL    HW111894   1.094   2.840   3.148  0.6743 -0.1201 -0.0381
 5057SOL    HW211895   1.072   2.690   3.152 -0.5056  0.0581  0.5071
 5058SOL     OW11896   0.372   0.531   4.044  0.5321 -0.1294  0.1873
 5058SOL    HW111897   0.406   0.478   4.117 -0.3266  0.6971  1.2120
 5058SOL    HW211898   0.288   0.491   4.024 -0.3611  1.1025  1.3093
 5059SOL     OW11899   2.991   0.150   2.256 -0.4009  0.5702 -0.0668
 5059SOL    HW111900   3.020   0.175   2.168 -0.8971  0.3514 -0.2904
 5059SOL    HW211901   2.911   0.201   2.270 -0.4567  0.4177  0.1626
 5060SOL     OW11902   3.128   3.720   1.510  0.6556 -0.0389  0.7240
 5060SOL    HW111903   3.102   3.643   1.561  0.2920 -0.5965 -0.2641
 5060SOL    HW211904   3.085   3.707   1.425  0.5279  1.3023  0.5708
 5061SOL     OW11905   2.861   0.120   3.158 -0.3920  0.5082 -0.1060
 5061SOL    HW111906   2.905   0.124   3.242  1.9732  0.1865 -1.2432
 5061SOL    HW211907   2.891   0.038   3.119  0.5948  1.7699 -2.2291
 5062SOL     OW11908   1.897   2.386   5.130  0.2543  0.2148 -0.5472
 5062SOL    HW111909   1.860   2.408   5.216  0.8794  0.8117 -0.4195
 5062SOL    HW211910   1.988   2.363   5.149  0.1452 -0.5524 -0.9406
 5063SOL     OW11911   3.477   0.080   2.638  0.1103  0.3707  0.3708
 5063SOL    HW111912   3.564   0.109   2.665  0.5697 -0.0975 -0.5609
 5063SOL    HW211913   3.475   0.094   2.544 -0.1051 -1.3706  0.0769
 5064SOL     OW11914   3.616   0.734   2.859  0.3365 -0.4289 -0.2070
 5064SOL    HW111915   3.627   0.745   2.765 -0.0268  0.0943 -0.1912
 5064SOL    HW211916   3.572   0.650   2.869  0.8927 -0.7567 -0.4715
 5065SOL     OW11917   3.480   0.529   2.935 -0.0657  0.3450 -0.2793
 5065SOL    HW111918   3.427   0.470   2.880 -1.7352  0.0306  1.5587
 5065SOL    HW211919   3.489   0.483   3.018 -0.0674  1.9864  0.6779
 5066SOL     OW11920   1.712   0.501   3.028 -0.7871  0.1352 -0.3336
 5066SOL    HW111921   1.778   0.519   3.096  1.1568 -0.2835 -2.0010
 5066SOL    HW211922   1.645   0.568   3.041 -0.0369  0.5949  1.4513
 5067SOL     OW11923   4.193   4.112   3.110  0.2210  0.1121  0.4283
 5067SOL    HW111924   4.257   4.083   3.045 -0.0867  0.8155 -0.2143
 5067SOL    HW211925   4.194   4.208   3.103 -0.5207  0.1514  0.7672
 5068SOL     OW11926   2.734   2.974   2.105  0.0822 -0.1776  0.3955
 5068SOL    HW111927   2.720   3.067   2.126  0.5280  0.1446 -0.6372
 5068SOL    HW211928   2.768   2.976   2.015 -2.5492 -1.4733 -0.7580
 5069SOL     OW11929   1.695   3.890   4.872  0.0657  0.6478 -0.4955
 5069SOL    HW111930   1.606   3.887   4.907  0.2178  0.4508 -0.1158
 5069SOL    HW211931   1.704   3.810   4.820  0.4596 -0.0164  0.5658
 5070SOL     OW11932   3.003   2.767   3.985  0.4671  0.1798 -0.1980
 5070SOL    HW111933   3.017   2.711   4.062 -0.3392 -0.0418 -0.1954
 5070SOL    HW211934   2.983   2.706   3.914 -0.1074  0.4458 -0.2692
 5071SOL     OW11935   2.236   0.382   3.751  0.5429 -0.7063 -0.6011
 5071SOL    HW111936   2.273   0.374   3.839 -0.4547 -0.0731 -0.0992
 5071SOL    HW211937   2.310   0.369   3.692  1.4387 -0.1053  0.3520
 5072SOL     OW11938   3.180   2.783   4.810 -0.4023  0.0878 -0.1544
 5072SOL    HW111939   3.091   2.752   4.794 -0.4885  0.2002  0.1071
 5072SOL    HW211940   3.181   2.807   4.902  0.1605 -0.7907  0.0811
 5073SOL     OW11941   1.856   4.066   2.430  0.3360  0.4908 -0.0049
 5073SOL    HW111942   1.868   3.976   2.399 -0.1598  0.4944 -0.2202
 5073SOL    HW211943   1.773   4.094   2.391  0.4192  0.9957  0.1703
 5074SOL     OW11944   3.142   1.027   2.572 -0.2056 -0.2143 -0.5300
 5074SOL    HW111945   3.125   0.957   2.635  0.7960 -0.7037 -0.7701
 5074SOL    HW211946   3.080   1.012   2.501 -1.8956  0.8105  0.6547
 5075SOL     OW11947   3.777   0.544   3.032 -0.0439  0.0215 -0.0266
 5075SOL    HW111948   3.698   0.567   2.983 -1.1370 -0.5055  1.3978
 5075SOL    HW211949   3.844   0.604   2.999 -0.7575 -0.1797 -1.9804
 5076SOL     OW11950   1.784   0.382   3.956 -0.2012  0.0514  0.2134
 5076SOL    HW111951   1.819   0.300   3.921 -0.7529  0.1200 -0.5383
 5076SOL    HW211952   1.849   0.411   4.020  1.5795  0.6000 -1.7233
 5077SOL     OW11953   3.428   4.137   1.686 -0.2859 -0.4773  1.2842
 5077SOL    HW111954   3.517   4.102   1.695 -0.0120 -0.2039 -0.2072
 5077SOL    HW211955   3.396   4.103   1.603 -0.2081  2.2752  0.0107
 5078SOL     OW11956   1.311   3.170   3.588 -0.4366 -0.4378  0.6268
 5078SOL    HW111957   1.240   3.125   3.633 -0.3329 -1.0412  0.2053
 5078SOL    HW211958   1.376   3.101   3.571 -0.9874 -0.4988 -1.4862
 5079SOL     OW11959   0.748   3.583   4.367  0.0298 -0.7842  0.2869
 5079SOL    HW111960   0.692   3.657   4.390  0.5548 -0.1088 -0.5734
 5079SOL    HW211961   0.698   3.506   4.395  0.0292 -0.0877  2.3787
 5080SOL     OW11962   2.520   2.743   3.702 -0.4946 -0.2052  0.3399
 5080SOL    HW111963   2.557   2.816   3.651 -1.1813  0.2169  0.4246
 5080SOL    HW211964   2.540   2.766   3.793  0.9303 -1.0720  0.2708
 5081SOL     OW11965   0.739   2.485   3.946 -0.0929 -0.1868 -0.5034
 5081SOL    HW111966   0.773   2.493   3.857  1.8064  1.8144  0.3141
 5081SOL    HW211967   0.665   2.425   3.938 -0.5948  0.6926 -3.5682
 5082SOL     OW11968   1.587   3.383   4.870 -0.2907  0.0303  0.9781
 5082SOL    HW111969   1.669   3.348   4.834 -0.9095  0.1520 -0.6468
 5082SOL    HW211970   1.595   3.370   4.964  1.0226 -1.2082  0.7401
 5083SOL     OW11971   1.632   3.772   2.621  0.0256 -0.4592  0.5294
 5083SOL    HW111972   1.696   3.703   2.637 -1.0263 -1.2214  1.6825
 5083SOL    HW211973   1.670   3.850   2.661  1.0301 -0.4502 -0.4070
 5084SOL     OW11974   3.180   3.176   6.815  0.3136  0.0989  0.2561
 5084SOL    HW111975   3.139   3.089   6.805  0.5298  0.2728 -3.5276
 5084SOL    HW211976   3.111   3.229   6.855  0.4170 -1.8531  3.3939
 5085SOL     OW11977   3.245   0.728   4.933 -0.1320 -0.1257  0.9840
 5085SOL    HW111978   3.175   0.691   4.879  1.3787 -4.3100  1.5335
 5085SOL    HW211979   3.273   0.807   4.886 -2.4280 -0.6252 -1.4170
 5086SOL     OW11980   1.462   0.559   4.598 -0.0754  0.5924  0.0692
 5086SOL    HW111981   1.372   0.527   4.606 -0.8190  2.6889  0.7231
 5086SOL    HW211982   1.461   0.612   4.518  1.4515 -1.8393 -1.7157
 5087SOL     OW11983   3.599   2.992   5.473 -0.0331  0.0653  0.0159
 5087SOL    HW111984   3.523   2.953   5.431 -0.2046  1.4110 -0.9802
 5087SOL    HW211985   3.671   2.932   5.455 -0.5264 -0.3774 -0.4657
 5088SOL     OW11986   4.215   0.707   3.764 -0.2746  1.0199 -0.1492
 5088SOL    HW111987   4.162   0.746   3.694  0.2577  2.3334  0.1348
 5088SOL    HW211988   4.205   0.768   3.838 -0.6588 -0.2234  0.8703
 5089SOL     OW11989   2.581   3.241   5.683 -0.0072 -0.2216  0.5571
 5089SOL    HW111990   2.487   3.257   5.671 -0.3494  0.1982  3.0798
 5089SOL    HW211991   2.612   3.319   5.730  2.5350  1.5413 -3.5111
 5090SOL     OW11992   1.031   0.512   4.975 -0.2356  0.4411 -0.0936
 5090SOL    HW111993   1.031   0.507   5.071  2.0921  0.5642 -0.0258
 5090SOL    HW211994   1.004   0.602   4.956 -0.0999  0.6110  0.4893
 5091SOL     OW11995   3.247   0.014   7.271 -0.4128  0.6837  0.0259
 5091SOL    HW111996   3.173   0.052   7.223 -1.9146  0.0658  1.7096
 5091SOL    HW211997   3.223  -0.078   7.282  1.6283 -0.0503 -1.1844
 5092SOL     OW11998   2.595   0.164   4.246 -0.0566 -0.5233 -0.1111
 5092SOL    HW111999   2.660   0.140   4.312 -0.0633  1.4153  0.6720
 5092SOL    HW212000   2.518   0.188   4.296 -0.6588 -0.7222 -0.9256
 5093SOL     OW12001   2.962   1.485   2.164 -0.0524  0.0379 -0.8937
 5093SOL    HW112002   2.958   1.390   2.176 -0.1656 -0.1448 -2.1797
 5093SOL    HW212003   2.940   1.498   2.071  0.9354  1.2433 -0.9848
 5094SOL     OW12004   1.250   4.033   4.957  0.5304  0.1851 -0.6979
 5094SOL    HW112005   1.276   3.984   4.879 -1.3119 -1.1865 -0.5200
 5094SOL    HW212006   1.264   4.124   4.934  0.3439 -0.2116 -2.5122
 5095SOL     OW12007   3.011   3.257   3.785 -0.0898  0.4136  0.2404
 5095SOL    HW112008   2.988   3.251   3.877 -0.2491  0.7503  0.2240
 5095SOL    HW212009   3.058   3.176   3.766  1.0543  0.8804  0.9373
 5096SOL     OW12010   2.253   1.560   4.582  0.3675  0.5717  0.0759
 5096SOL    HW112011   2.244   1.484   4.641 -1.9592  1.2900  0.7566
 5096SOL    HW212012   2.335   1.601   4.609  1.3568 -1.3053  0.1325
 5097SOL     OW12013   1.922   0.791   4.082 -0.2845  0.2545  0.0500
 5097SOL    HW112014   1.852   0.845   4.119  0.4149  1.2700 -0.0686
 5097SOL    HW212015   1.933   0.720   4.146 -1.9636 -0.4062 -0.3341
 5098SOL     OW12016   1.767   3.769   6.096  0.3762 -0.4301  0.5078
 5098SOL    HW112017   1.764   3.853   6.142  1.1232 -1.4951  2.6258
 5098SOL    HW212018   1.779   3.704   6.165 -0.1771 -2.3048 -1.0669
 5099SOL     OW12019   3.039   3.758   5.123  0.1575  0.0924  0.1688
 5099SOL    HW112020   3.087   3.841   5.123 -0.9447  0.7614  1.2294
 5099SOL    HW212021   3.096   3.697   5.075  0.7887  1.5609 -1.0040
 5100SOL     OW12022   4.122   3.305   5.129 -0.0385 -0.7166 -0.2003
 5100SOL    HW112023   4.192   3.333   5.071  1.4616 -2.1559  0.8286
 5100SOL    HW212024   4.125   3.209   5.127 -2.6036 -0.8543 -0.8186
 5101SOL     OW12025   3.951   3.382   4.286 -0.0378 -0.8019  0.0155
 5101SOL    HW112026   3.916   3.421   4.366  0.1831 -0.1320 -0.2090
 5101SOL    HW212027   3.949   3.288   4.302 -0.2599 -0.6836  0.6978
 5102SOL     OW12028   0.320   4.147   4.815  0.1171 -0.0814 -0.6150
 5102SOL    HW112029   0.246   4.153   4.876 -0.3216  0.7358 -1.1975
 5102SOL    HW212030   0.320   4.232   4.769  1.2303 -0.1929 -0.8424
 5103SOL     OW12031   1.553   0.664   6.185 -0.0906 -0.3264  0.0895
 5103SOL    HW112032   1.556   0.575   6.219 -2.5364 -0.7086 -0.4956
 5103SOL    HW212033   1.532   0.718   6.261  0.5777 -0.3253  0.2852
 5104SOL     OW12034   2.794   4.116   3.789  0.1832 -0.2323 -0.0938
 5104SOL    HW112035   2.700   4.097   3.795 -0.1310  1.1382 -0.1501
 5104SOL    HW212036   2.828   4.095   3.876 -0.0509 -1.2927 -0.2445
 5105SOL     OW12037   2.579   3.562   3.456 -0.3003  0.0587 -0.0205
 5105SOL    HW112038   2.500   3.508   3.453  0.8322 -1.7790  1.1021
 5105SOL    HW212039   2.579   3.598   3.545  0.6116 -0.7748  0.3284
 5106SOL     OW12040   3.868   0.597   6.057 -0.0435 -0.3357 -0.3177
 5106SOL    HW112041   3.853   0.674   6.001 -0.4791 -0.2945 -0.1424
 5106SOL    HW212042   3.784   0.580   6.097  0.6746  0.7856  1.8093
 5107SOL     OW12043   3.936   3.535   3.270 -0.0534  0.0271  0.0684
 5107SOL    HW112044   3.913   3.458   3.217  1.4238  0.2116 -0.8974
 5107SOL    HW212045   3.952   3.604   3.205  0.1103  0.7344  0.8544
 5108SOL     OW12046   2.372   4.168   5.205 -0.4550  0.0036 -0.9959
 5108SOL    HW112047   2.277   4.173   5.210 -0.3835  0.2246  0.5953
 5108SOL    HW212048   2.390   4.081   5.168 -1.2640 -1.6888  2.2393
 5109SOL     OW12049   1.818   0.034   5.158 -0.2337 -0.2572  0.5094
 5109SOL    HW112050   1.766   0.041   5.078 -1.2515 -0.5876  1.1210
 5109SOL    HW212051   1.757   0.054   5.228  0.8281  0.7951  1.1776
 5110SOL     OW12052   0.394   3.534   5.207  0.4207  0.0306  0.2150
 5110SOL    HW112053   0.456   3.466   5.178  0.0718  0.1072 -0.7518
 5110SOL    HW212054   0.308   3.498   5.185  0.0422 -0.4315  2.3056
 5111SOL     OW12055   2.626   2.990   3.683  0.2983 -0.3940  0.4565
 5111SOL    HW112056   2.562   3.053   3.714 -0.7662 -2.1009  1.8926
 5111SOL    HW212057   2.701   3.043   3.656 -1.6751  1.6615 -1.3384
 5112SOL     OW12058   2.631   3.407   5.387 -0.0629 -0.4083 -0.0466
 5112SOL    HW112059   2.679   3.367   5.459 -2.2614 -1.4916  0.8826
 5112SOL    HW212060   2.636   3.501   5.404  0.4655 -0.5892  0.8478
 5113SOL     OW12061   2.246   2.724   3.363  0.1375  0.2587 -0.1428
 5113SOL    HW112062   2.281   2.639   3.387  1.6650  1.2063  1.1583
 5113SOL    HW212063   2.172   2.738   3.421 -0.3889 -0.3388 -0.6538
 5114SOL     OW12064   1.417   2.953   5.386  0.0607  0.4179  0.2406
 5114SOL    HW112065   1.412   2.964   5.291 -1.9004 -0.8682  0.1452
 5114SOL    HW212066   1.506   2.922   5.402  0.5848  1.1299 -1.0967
 5115SOL     OW12067   1.270   2.492   3.739 -0.1654 -0.4339  0.0460
 5115SOL    HW112068   1.319   2.514   3.660  0.8920 -1.2847  0.4475
 5115SOL    HW212069   1.299   2.555   3.804 -0.6704 -0.0417 -0.1079
 5116SOL     OW12070   2.986   3.346   4.382 -0.2808  0.3916 -0.2053
 5116SOL    HW112071   3.008   3.435   4.356 -1.7625  0.7753 -0.1911
 5116SOL    HW212072   2.891   3.342   4.377 -0.1912 -1.5042 -1.1889
 5117SOL     OW12073   3.182   4.315   5.906 -0.3852 -0.2299  0.2972
 5117SOL    HW112074   3.191   4.220   5.899 -0.2773 -0.1858 -0.1728
 5117SOL    HW212075   3.251   4.342   5.967  2.1208 -0.0137 -2.4407
 5118SOL     OW12076   2.528   1.809   4.477 -0.3303 -0.7430 -0.5122
 5118SOL    HW112077   2.524   1.793   4.571  3.4355 -1.9738 -0.4136
 5118SOL    HW212078   2.515   1.723   4.437  0.7635 -0.7112 -0.9647
 5119SOL     OW12079   1.390   3.523   4.386  0.3510 -0.3403 -0.3753
 5119SOL    HW112080   1.371   3.613   4.413  0.5653 -0.3058 -0.3376
 5119SOL    HW212081   1.393   3.473   4.468  2.7353  0.0794 -0.1268
 5120SOL     OW12082   2.282   3.028   3.395  0.1572  0.3817 -0.3574
 5120SOL    HW112083   2.297   2.940   3.360 -0.5761  0.3937 -0.7122
 5120SOL    HW212084   2.369   3.058   3.420  0.3361 -0.6972  0.3834
 5121SOL     OW12085   2.432   0.768   4.398  0.0978  0.0499 -0.5827
 5121SOL    HW112086   2.346   0.774   4.355  0.6205 -0.1801 -1.6801
 5121SOL    HW212087   2.469   0.856   4.389 -0.4376  0.4577  0.8403
 5122SOL     OW12088   0.061   1.363   3.906  0.7227 -0.1106  0.7328
 5122SOL    HW112089  -0.019   1.317   3.882  1.3081 -0.9887  0.4383
 5122SOL    HW212090   0.111   1.300   3.958  0.6612  0.8659  2.0363
 5123SOL     OW12091   0.855   3.233   4.100 -0.3682 -0.0800 -0.0490
 5123SOL    HW112092   0.912   3.225   4.176  0.2462  1.4273 -0.3079
 5123SOL    HW212093   0.898   3.298   4.045 -0.2540 -1.8791 -2.2048
 5124SOL     OW12094   0.469   2.689   4.385  0.0875  0.0191 -0.1341
 5124SOL    HW112095   0.415   2.761   4.417  0.4433 -0.1859  0.9600
 5124SOL    HW212096   0.543   2.732   4.342  1.3250  0.3876  2.2014
 5125SOL     OW12097   4.157   2.617   4.182  0.1152 -0.4806 -0.1917
 5125SOL    HW112098   4.142   2.702   4.224  1.2401  0.1827 -1.0600
 5125SOL    HW212099   4.078   2.567   4.200 -0.5311  0.7171  0.4358
 5126SOL     OW12100   2.847   3.723   4.662 -0.0741 -0.9057  0.1154
 5126SOL    HW112101   2.818   3.661   4.729 -1.9991 -0.2698 -0.0932
 5126SOL    HW212102   2.772   3.780   4.647  0.5737 -0.5258 -2.0110
 5127SOL     OW12103   0.394   0.406   5.439 -0.0672  0.2264 -0.3049
 5127SOL    HW112104   0.365   0.316   5.459  0.7296 -0.0012 -0.1307
 5127SOL    HW212105   0.395   0.450   5.524 -0.7412  0.4876 -0.4314
 5128SOL     OW12106   2.910   2.602   3.768  0.1355 -0.6064  0.3228
 5128SOL    HW112107   2.969   2.552   3.711  0.4622  0.7912 -0.6420
 5128SOL    HW212108   2.823   2.571   3.745  0.3490 -0.9336 -0.0589
 5129SOL     OW12109   1.680   3.171   5.576 -1.2506  0.1913  0.0863
 5129SOL    HW112110   1.662   3.210   5.490 -1.5111  0.1806  0.1348
 5129SOL    HW212111   1.761   3.212   5.605 -0.7209 -0.4020 -0.5311
 5130SOL     OW12112   1.066   0.383   4.271 -0.1834 -0.2903 -0.1503
 5130SOL    HW112113   1.082   0.313   4.334  1.1868 -0.4064 -0.6035
 5130SOL    HW212114   1.094   0.348   4.187  0.2397  0.6872 -0.4368
 5131SOL     OW12115   2.280   2.148   4.696 -0.6258 -0.0296 -0.2450
 5131SOL    HW112116   2.239   2.134   4.782  1.4852 -0.8298  0.7055
 5131SOL    HW212117   2.208   2.176   4.640 -2.1929 -0.0085  1.6421
 5132SOL     OW12118   2.217   2.711   3.667  0.4836 -0.0927  0.4112
 5132SOL    HW112119   2.209   2.764   3.747 -0.8234 -2.2035  1.8082
 5132SOL    HW212120   2.311   2.706   3.650  0.6607  2.2557  0.4648
 5133SOL     OW12121   0.788   0.385   4.929 -0.8692  0.2462 -0.4424
 5133SOL    HW112122   0.799   0.296   4.895  2.5488 -1.2972  3.6805
 5133SOL    HW212123   0.878   0.414   4.948 -2.0157  3.8136  0.2358
 5134SOL     OW12124   2.479   0.556   4.195 -0.0923  0.4764  0.1947
 5134SOL    HW112125   2.483   0.619   4.267  1.5292 -0.3290  0.8643
 5134SOL    HW212126   2.528   0.598   4.124 -1.9460  1.4006 -0.6076
 5135SOL     OW12127   2.006   0.075   4.569 -0.6984  0.2280 -0.4131
 5135SOL    HW112128   2.059   0.106   4.495 -0.5140  3.0222  0.7702
 5135SOL    HW212129   2.066   0.023   4.621  0.1311  1.0426 -0.5308
 5136SOL     OW12130   1.139   3.500   4.898  0.1542  0.0800 -0.0879
 5136SOL    HW112131   1.183   3.421   4.866  0.2510  0.4154 -0.7947
 5136SOL    HW212132   1.147   3.563   4.827 -1.4017  0.1941 -0.1963
 5137SOL     OW12133   2.244   2.550   4.252  0.4284 -0.0174  0.2878
 5137SOL    HW112134   2.236   2.457   4.229  1.8267  0.4160 -2.3012
 5137SOL    HW212135   2.318   2.553   4.312 -0.6808 -0.7199  1.7592
 5138SOL     OW12136   2.328   0.345   4.027 -0.2841 -0.0318 -0.1852
 5138SOL    HW112137   2.302   0.276   4.088 -1.1157  0.1193 -0.3655
 5138SOL    HW212138   2.392   0.397   4.076 -0.2996 -0.4199  0.2539
 5139SOL     OW12139   1.659   0.653   7.148  0.3099 -0.0253  0.5570
 5139SOL    HW112140   1.666   0.714   7.074  1.2972 -1.0538 -0.2352
 5139SOL    HW212141   1.574   0.610   7.135  0.8371 -0.8039 -0.4932
 5140SOL     OW12142   1.765   0.719   5.881  0.1448  0.0819 -0.1195
 5140SOL    HW112143   1.800   0.731   5.969 -1.0761  0.0959  0.3870
 5140SOL    HW212144   1.757   0.624   5.871  1.8689 -0.0188 -0.8902
 5141SOL     OW12145   2.068   3.922   5.319 -0.2321  0.3090 -0.0309
 5141SOL    HW112146   1.976   3.899   5.308 -0.1083 -0.3490  0.2642
 5141SOL    HW212147   2.072   4.016   5.301 -1.1693  0.6000  1.2102
 5142SOL     OW12148   0.360   3.381   7.032 -0.1015 -0.1133  0.0523
 5142SOL    HW112149   0.275   3.337   7.028  0.1623 -0.6186 -0.1347
 5142SOL    HW212150   0.369   3.424   6.947 -0.5612  0.6980  0.4033
 5143SOL     OW12151   3.258   1.034   6.338 -0.6692  0.3389  0.1781
 5143SOL    HW112152   3.290   1.091   6.268  0.4160 -0.3827  0.0602
 5143SOL    HW212153   3.192   0.980   6.295 -1.0909  0.9247  0.0830
 5144SOL     OW12154   3.326   2.872   6.019  0.1635 -0.1999 -0.3155
 5144SOL    HW112155   3.390   2.936   5.987  0.5014 -0.2164  0.3011
 5144SOL    HW212156   3.341   2.869   6.114 -0.7481 -0.2108 -0.1641
 5145SOL     OW12157   1.929   1.218   6.851  0.8755 -0.7618 -0.0556
 5145SOL    HW112158   1.859   1.160   6.821 -0.2645  0.1006  0.8396
 5145SOL    HW212159   1.884   1.287   6.899  2.3601 -0.2514  0.6675
 5146SOL     OW12160   3.760   0.752   5.237 -0.3809 -0.2357 -0.0425
 5146SOL    HW112161   3.822   0.807   5.190 -1.9223  0.5110 -1.3059
 5146SOL    HW212162   3.734   0.685   5.174 -1.8237  0.2546 -0.0022
 5147SOL     OW12163   2.812   3.380   4.797 -0.1272 -0.6811 -0.0391
 5147SOL    HW112164   2.821   3.458   4.851 -1.2688  0.0636 -0.9037
 5147SOL    HW212165   2.732   3.338   4.827 -1.9606  0.8354 -2.4033
 5148SOL     OW12166   2.055   2.960   6.196 -0.3479  0.7591  0.3787
 5148SOL    HW112167   2.070   2.961   6.101  0.2760  0.0512  0.4532
 5148SOL    HW212168   1.965   2.991   6.206  0.1379  2.5210 -0.3104
 5149SOL     OW12169   3.734   0.845   5.943 -0.2037 -0.8825  0.1836
 5149SOL    HW112170   3.731   0.898   6.023  0.6688  0.0427 -0.3882
 5149SOL    HW212171   3.814   0.872   5.898 -1.5340 -0.1188 -1.8678
 5150SOL     OW12172   3.290   0.962   7.151 -0.4451  0.2251  0.9473
 5150SOL    HW112173   3.222   0.939   7.088  0.9935 -2.7525  0.3122
 5150SOL    HW212174   3.247   0.951   7.236 -1.2346  0.0380  0.5389
 5151SOL     OW12175   3.262   3.874   5.674 -0.1708 -0.1649 -0.2840
 5151SOL    HW112176   3.179   3.828   5.685 -1.4892  1.9578 -0.7105
 5151SOL    HW212177   3.275   3.877   5.579  0.0160  0.1527 -0.2484
 5152SOL     OW12178   3.064   0.065   7.052  0.3184  0.0930  0.3692
 5152SOL    HW112179   3.063  -0.023   7.016 -1.2099  0.7441 -1.3642
 5152SOL    HW212180   2.985   0.070   7.106 -0.0163  0.5992 -0.1486
 5153SOL     OW12181   3.368   3.511   3.924  0.1701 -0.0906  0.0647
 5153SOL    HW112182   3.320   3.499   3.842 -2.6011 -3.0859  1.8670
 5153SOL    HW212183   3.322   3.582   3.969  0.9694  0.7576 -0.4057
 5154SOL     OW12184   3.195   3.068   6.434 -0.4790 -0.5147  0.7469
 5154SOL    HW112185   3.195   2.993   6.374  0.5038 -1.1214  1.4679
 5154SOL    HW212186   3.170   3.143   6.379  0.1318 -1.1021 -0.3679
 5155SOL     OW12187   3.512   4.042   7.694  0.2448  0.2351  0.3352
 5155SOL    HW112188   3.486   4.130   7.668 -0.0746 -0.6687 -2.8447
 5155SOL    HW212189   3.595   4.054   7.741  0.3807  2.2042 -0.3107
 5156SOL     OW12190   1.860   4.106   4.988  0.0801 -0.0167  0.2328
 5156SOL    HW112191   1.810   4.052   4.928  1.1952  0.0309 -0.7858
 5156SOL    HW212192   1.825   4.194   4.976 -0.5008 -0.2009  0.5406
 5157SOL     OW12193   1.057   4.261   4.209  0.1396  0.0949 -0.2382
 5157SOL    HW112194   1.086   4.171   4.195  2.1137  0.3307  1.7993
 5157SOL    HW212195   1.031   4.292   4.122 -1.1853 -2.5820 -0.9045
 5158SOL     OW12196   2.574   4.290   4.943 -0.0058  0.2212 -0.2475
 5158SOL    HW112197   2.550   4.343   5.019  0.7987  0.3936 -0.1030
 5158SOL    HW212198   2.604   4.207   4.981 -0.1666  0.0898 -0.4088
 5159SOL     OW12199   1.577   4.026   5.999  0.0972  0.0461 -0.1194
 5159SOL    HW112200   1.610   4.015   6.088  0.4676 -1.2590 -0.3947
 5159SOL    HW212201   1.482   4.022   6.008  0.0777  1.2327  0.3629
 5160SOL     OW12202   1.120   1.126   6.536 -0.3476 -0.2782 -0.0777
 5160SOL    HW112203   1.115   1.215   6.500 -0.4576  0.1107  0.8870
 5160SOL    HW212204   1.062   1.075   6.479  0.6602 -0.0132 -1.4099
 5161SOL     OW12205   1.308   2.369   5.647  0.1566 -0.5122 -0.3367
 5161SOL    HW112206   1.226   2.377   5.598 -0.8526 -0.7075  1.2514
 5161SOL    HW212207   1.324   2.275   5.653 -0.5456 -0.5814  0.9366
 5162SOL     OW12208   1.738   3.862   6.659  0.1584 -0.4968 -0.0693
 5162SOL    HW112209   1.752   3.949   6.696 -2.3656  0.1136 -0.3585
 5162SOL    HW212210   1.737   3.803   6.735  3.4254 -0.6083  0.0124
 5163SOL     OW12211   0.078   1.619   6.745 -0.1508 -0.1370 -0.2336
 5163SOL    HW112212   0.002   1.672   6.766 -0.1865 -0.0423 -0.5854
 5163SOL    HW212213   0.140   1.635   6.817  0.0287  0.7570 -0.5721
 5164SOL     OW12214   3.327   4.211   6.241 -0.3179 -0.7488 -0.4686
 5164SOL    HW112215   3.279   4.269   6.301  0.3482 -0.9564  0.2788
 5164SOL    HW212216   3.357   4.269   6.171 -1.4235 -0.5697 -0.8174
 5165SOL     OW12217   3.970   4.301   7.252  0.0816 -0.0338  0.3605
 5165SOL    HW112218   3.954   4.211   7.280 -0.7444  0.4580  1.5540
 5165SOL    HW212219   3.909   4.354   7.303  0.5848  1.2208 -0.2750
 5166SOL     OW12220   0.913   0.473   5.236 -0.0075  0.1286 -0.0308
 5166SOL    HW112221   0.937   0.542   5.297 -0.6882 -1.3092  1.9737
 5166SOL    HW212222   0.818   0.477   5.231  0.1067  1.2584 -2.3405
 5167SOL     OW12223   2.057   2.925   6.504 -0.4330  0.7070  0.0738
 5167SOL    HW112224   2.056   2.910   6.410  0.6653 -1.4492  0.3516
 5167SOL    HW212225   2.123   2.994   6.516 -0.1669  0.5928 -0.6796
 5168SOL     OW12226   0.748   4.143   5.298  0.3389  0.4902 -0.3078
 5168SOL    HW112227   0.722   4.116   5.385  0.7926  0.7987 -0.0734
 5168SOL    HW212228   0.756   4.062   5.248  0.3223  0.2990  0.0020
 5169SOL     OW12229   2.280   1.715   5.558  0.2749  0.2699  0.0071
 5169SOL    HW112230   2.295   1.809   5.570 -1.2646  0.7571 -1.4961
 5169SOL    HW212231   2.336   1.691   5.484  2.3940 -0.5734  1.7575
 5170SOL     OW12232   1.483   1.957   7.126  0.0801 -0.0369  0.1614
 5170SOL    HW112233   1.415   1.928   7.065 -0.2597 -1.7256  1.2741
 5170SOL    HW212234   1.515   2.039   7.088 -1.6030  0.0948 -1.1237
 5171SOL     OW12235   0.045   0.781   6.619 -0.2372  0.2312 -0.0812
 5171SOL    HW112236   0.007   0.771   6.532 -0.9536  1.3895  0.0775
 5171SOL    HW212237   0.027   0.697   6.663 -1.2148  0.1791 -0.5469
 5172SOL     OW12238   1.968   4.106   6.425  0.5059  0.6113  0.1742
 5172SOL    HW112239   1.904   4.120   6.494  0.3915 -1.0040  0.4409
 5172SOL    HW212240   2.052   4.126   6.465  0.5221 -1.1201  1.0752
 5173SOL     OW12241   2.822   2.449   6.608 -0.4548  0.2890  0.1022
 5173SOL    HW112242   2.743   2.453   6.662 -0.1522 -0.2859  0.5870
 5173SOL    HW212243   2.798   2.391   6.535  0.0895 -1.3820  1.2105
 5174SOL     OW12244   2.961   0.037   6.561 -0.3291  0.3813  0.0723
 5174SOL    HW112245   2.961   0.132   6.550 -0.4214  0.3948  0.1865
 5174SOL    HW212246   2.898   0.006   6.496 -0.3911  0.4078  0.1203
 5175SOL     OW12247   3.986   4.264   5.972  0.2636 -0.8081 -0.2007
 5175SOL    HW112248   4.003   4.347   5.929 -0.3278 -1.2762 -1.3900
 5175SOL    HW212249   4.069   4.240   6.013  0.1703  0.8325  1.0124
 5176SOL     OW12250   2.766   0.463   7.429 -0.1149  0.1033  0.2698
 5176SOL    HW112251   2.765   0.459   7.524 -0.2664 -1.9453  0.2160
 5176SOL    HW212252   2.816   0.386   7.402  0.6726  1.1147 -1.3053
 5177SOL     OW12253   3.588   0.963   5.335 -0.3860 -0.3494 -0.2805
 5177SOL    HW112254   3.654   0.901   5.302  1.4248  0.7886  0.9968
 5177SOL    HW212255   3.520   0.907   5.373  0.2387 -1.5770 -0.9029
 5178SOL     OW12256   2.803   3.636   5.054 -0.2702  0.2251  0.0433
 5178SOL    HW112257   2.728   3.678   5.012  0.2932  1.6669  0.4180
 5178SOL    HW212258   2.862   3.708   5.076  1.3327 -0.8816 -0.4206
 5179SOL     OW12259   3.426   3.673   5.715 -0.0163  0.2666  0.4680
 5179SOL    HW112260   3.375   3.607   5.667  0.0082 -0.0859  0.9122
 5179SOL    HW212261   3.377   3.754   5.704  0.4533  0.3860 -0.8833
 5180SOL     OW12262   3.855   0.398   5.265 -0.5294  0.0798  0.4373
 5180SOL    HW112263   3.788   0.461   5.238  0.3337  0.6928 -0.3358
 5180SOL    HW212264   3.913   0.391   5.189  1.2993  0.9336  1.6790
 5181SOL     OW12265   3.527   0.400   6.909  0.3510 -0.5199  0.0071
 5181SOL    HW112266   3.571   0.433   6.831  1.6635  0.1100  0.9691
 5181SOL    HW212267   3.528   0.305   6.900 -0.8061 -0.4285 -1.3945
 5182SOL     OW12268   2.510   1.360   6.673  0.2847  0.0579 -0.2180
 5182SOL    HW112269   2.458   1.384   6.749 -0.4244  1.7077 -1.1795
 5182SOL    HW212270   2.587   1.416   6.677  1.3747 -1.4260  0.4633
 5183SOL     OW12271   3.364   0.596   7.019 -0.1163  0.0494  0.3223
 5183SOL    HW112272   3.428   0.534   6.985 -0.9154  0.7913 -2.9248
 5183SOL    HW212273   3.279   0.555   7.001 -0.6156  0.4282  1.7129
 5184SOL     OW12274   3.396   3.131   7.123 -0.2895 -0.4920 -0.6317
 5184SOL    HW112275   3.483   3.093   7.111 -0.4733 -1.1412 -0.0017
 5184SOL    HW212276   3.336   3.062   7.096 -0.6185  0.1774 -1.6716
 5185SOL     OW12277   3.266   3.974   6.120  0.4299 -0.1375  0.4883
 5185SOL    HW112278   3.316   3.914   6.175  0.0807 -0.1657  0.7870
 5185SOL    HW212279   3.285   4.061   6.156 -2.0887 -0.3369  2.6459
 5186SOL     OW12280   1.665   2.867   3.039 -0.0163  0.0264 -0.1083
 5186SOL    HW112281   1.700   2.890   2.952 -0.7837  0.4400 -0.3174
 5186SOL    HW212282   1.576   2.837   3.022 -0.4756  0.9287  0.6153
 5187SOL     OW12283   2.292   2.705   6.561 -0.0329  0.2188  0.0768
 5187SOL    HW112284   2.365   2.758   6.593 -0.3642 -0.4024  2.0093
 5187SOL    HW212285   2.332   2.621   6.538  0.1399  0.5118 -0.6964
 5188SOL     OW12286   1.811   0.122   6.332 -0.3685 -0.0901 -0.1485
 5188SOL    HW112287   1.870   0.147   6.403 -1.8922  2.3673  0.3646
 5188SOL    HW212288   1.865   0.065   6.276  1.9329  0.6604  1.1495
 5189SOL     OW12289   3.290   4.236   6.990 -0.1210 -0.2778  0.0444
 5189SOL    HW112290   3.235   4.182   6.933  0.0309 -0.5955  0.1980
 5189SOL    HW212291   3.235   4.310   7.013 -0.5909 -0.7511  0.4552
 5190SOL     OW12292   1.500   0.812   7.405 -0.0917  0.2739 -0.4060
 5190SOL    HW112293   1.531   0.789   7.493  2.7864  1.2868 -1.0333
 5190SOL    HW212294   1.580   0.835   7.357 -1.6879  0.8958 -2.9611
 5191SOL     OW12295   2.678   3.930   6.819 -0.1072  0.3582 -0.0672
 5191SOL    HW112296   2.685   4.012   6.769  0.3131  0.6438  0.4543
 5191SOL    HW212297   2.639   3.868   6.757 -0.4629  0.9584 -0.4612
 5192SOL     OW12298   3.678   3.516   7.393 -0.4090 -0.4680 -0.2746
 5192SOL    HW112299   3.598   3.472   7.423 -0.5985 -0.2438 -0.4517
 5192SOL    HW212300   3.647   3.597   7.352 -0.0135  0.2144  0.7383
 5193SOL     OW12301   2.014   4.260   7.133 -0.1743 -0.4046 -0.4907
 5193SOL    HW112302   2.070   4.202   7.082  0.6737 -0.0137 -0.0332
 5193SOL    HW212303   2.075   4.316   7.182 -0.9527 -0.7544  0.9376
 5194SOL     OW12304   2.430   2.114   7.259  0.4721  0.4272 -0.1216
 5194SOL    HW112305   2.426   2.098   7.165 -0.5103 -0.8701  0.1325
 5194SOL    HW212306   2.469   2.202   7.266  1.5185  0.1304 -1.6869
 5195SOL     OW12307   2.409   3.974   7.671 -0.0107 -0.8045  0.0387
 5195SOL    HW112308   2.324   4.013   7.691  0.1750 -0.3714  0.0061
 5195SOL    HW212309   2.392   3.881   7.661 -0.3464 -0.8395  0.8416
 5196SOL     OW12310   3.877   4.030   7.305 -0.7438 -0.3985 -0.2554
 5196SOL    HW112311   3.810   4.090   7.337 -0.9307 -1.3277  1.1925
 5196SOL    HW212312   3.835   3.944   7.307 -0.2288 -0.6995 -1.5387
 5197SOL     OW12313   4.170   0.739   0.651  0.1980  0.3151  0.0410
 5197SOL    HW112314   4.192   0.832   0.644  1.6600  0.0032  0.2221
 5197SOL    HW212315   4.119   0.721   0.571 -0.9349  1.4618  0.4639
 5198SOL     OW12316   3.454   0.383   3.183  0.3490 -0.2481 -0.0455
 5198SOL    HW112317   3.373   0.356   3.226  0.7431  0.8875  1.4882
 5198SOL    HW212318   3.519   0.382   3.252  2.0393 -2.5348 -1.5303
 5199SOL     OW12319   4.153   1.051   1.176 -0.2929  0.1101 -0.5137
 5199SOL    HW112320   4.099   1.123   1.207 -0.7811 -0.0193 -1.0387
 5199SOL    HW212321   4.217   1.037   1.246 -2.2447 -1.1381  1.1592
 5200SOL     OW12322   2.604   0.558   1.838  0.2038 -0.1900 -0.2149
 5200SOL    HW112323   2.676   0.577   1.779 -0.2673 -1.7410 -1.3352
 5200SOL    HW212324   2.531   0.609   1.804  0.5031  0.6811  0.3979
 5201SOL     OW12325   1.273   0.892   3.040  0.3418  0.5495 -0.3869
 5201SOL    HW112326   1.185   0.900   3.075  0.7455 -0.8513  1.0328
 5201SOL    HW212327   1.329   0.938   3.103  0.9692 -1.1950  0.3733
 5202SOL     OW12328   0.085   3.195   1.236 -0.0375 -0.2699  0.3913
 5202SOL    HW112329   0.012   3.161   1.287 -0.4512 -0.5323 -0.3590
 5202SOL    HW212330   0.122   3.118   1.193 -0.3350  0.0709 -0.4974
 5203SOL     OW12331   4.039   0.155   0.692 -0.4619 -0.4989 -0.6097
 5203SOL    HW112332   3.989   0.080   0.661  1.7692 -0.7585 -4.1938
 5203SOL    HW212333   4.072   0.129   0.778 -1.5701 -2.6704 -0.7859
 5204SOL     OW12334   4.112   2.106   0.945  0.0027  0.2834  0.2679
 5204SOL    HW112335   4.028   2.061   0.945  0.6843 -1.0388 -0.5675
 5204SOL    HW212336   4.138   2.110   0.853  0.2844  1.8076  0.3850
 5205SOL     OW12337   3.731   0.422   0.672  0.0669  0.0019  0.2075
 5205SOL    HW112338   3.783   0.499   0.649  0.5483 -0.1552  0.7510
 5205SOL    HW212339   3.770   0.390   0.753 -1.7778  0.7157  1.4391
 5206SOL     OW12340   2.599   2.833   3.191  0.0800  0.0416  0.2626
 5206SOL    HW112341   2.510   2.815   3.160  0.5756  1.0411 -1.9796
 5206SOL    HW212342   2.627   2.909   3.140  2.2430 -0.2907  0.8463
 5207SOL     OW12343   0.207   3.963   0.659  0.4222  0.1660  0.2189
 5207SOL    HW112344   0.294   4.001   0.670  0.3102  0.6529 -0.4874
 5207SOL    HW212345   0.220   3.869   0.672  0.8938  0.3201  0.9563
 5208SOL     OW12346   4.173   1.391   2.420  0.2791  0.2248  0.3288
 5208SOL    HW112347   4.138   1.319   2.473  2.5160 -0.9221  0.3933
 5208SOL    HW212348   4.097   1.428   2.375 -1.3130 -0.4448  2.3391
 5209SOL     OW12349   3.490   1.497   0.691  0.1583  0.8954 -0.3622
 5209SOL    HW112350   3.544   1.575   0.682  1.4528  0.4815  2.5439
 5209SOL    HW212351   3.548   1.425   0.667 -0.7154  0.7164 -2.0428
 5210SOL     OW12352   4.257   2.001   2.606  0.1168  0.5389  0.5008
 5210SOL    HW112353   4.321   2.054   2.558 -0.7174  2.7107  1.6385
 5210SOL    HW212354   4.189   1.981   2.542  0.9659 -0.1453 -0.2200
 5211SOL     OW12355   3.593   0.361   1.229 -0.0956  0.4917 -0.6265
 5211SOL    HW112356   3.688   0.345   1.235 -0.2836 -0.4845  0.1279
 5211SOL    HW212357   3.559   0.329   1.313 -1.1739  0.2045 -1.1576
 5212SOL     OW12358   4.030   2.357   1.780  0.5083 -0.0756 -1.0244
 5212SOL    HW112359   4.047   2.307   1.701 -1.0544 -1.0617 -0.7969
 5212SOL    HW212360   4.026   2.291   1.850 -2.4588  0.1654 -0.8444
 5213SOL     OW12361   0.805   4.143   1.081  0.5363 -0.1467 -0.4234
 5213SOL    HW112362   0.809   4.232   1.114 -1.0476 -0.6586  1.3606
 5213SOL    HW212363   0.847   4.090   1.150 -2.9252 -1.2667  1.0311
 5214SOL     OW12364   1.042   3.048   1.540 -0.7716  0.1079 -0.2833
 5214SOL    HW112365   1.034   2.955   1.521  1.1776  0.2362 -2.0928
 5214SOL    HW212366   0.974   3.090   1.488  0.4137 -0.0897 -2.0629
 5215SOL     OW12367   3.378   2.102   2.535 -0.2214 -0.1253  0.5285
 5215SOL    HW112368   3.370   2.022   2.482  0.4459 -0.6294  1.1635
 5215SOL    HW212369   3.385   2.070   2.625  2.2097  0.5322  0.6291
 5216SOL     OW12370   0.022   0.458   0.644 -0.0358  0.0320 -0.2828
 5216SOL    HW112371  -0.062   0.505   0.641 -0.2191 -0.3136 -2.4503
 5216SOL    HW212372   0.087   0.523   0.618  0.0423 -0.2790 -0.8827
 5217SOL     OW12373   0.328   1.590   4.172  0.1276  0.4176 -0.6608
 5217SOL    HW112374   0.311   1.683   4.157  0.1620  0.3570 -1.0753
 5217SOL    HW212375   0.402   1.588   4.233 -1.0570  0.6807  0.8612
 5218SOL     OW12376   4.079   1.687   2.502 -0.2686  0.3598  0.0764
 5218SOL    HW112377   4.103   1.764   2.450 -1.4994  0.4884 -0.3363
 5218SOL    HW212378   4.134   1.617   2.467  0.8723  1.0312  0.4635
 5219SOL     OW12379   0.123   1.429   0.890 -0.0479  0.5356  0.6034
 5219SOL    HW112380   0.109   1.341   0.854 -1.6857  1.0147 -0.0385
 5219SOL    HW212381   0.146   1.414   0.981 -0.4139 -0.5686  0.5299
 5220SOL     OW12382   4.029   1.651   0.926 -0.3829  0.0220 -0.1297
 5220SOL    HW112383   4.111   1.678   0.967 -1.2047 -0.7533  2.1519
 5220SOL    HW212384   3.980   1.732   0.913 -0.4114  0.2265  1.1685
 5221SOL     OW12385   4.022   1.269   1.914 -0.2668 -0.4804 -0.1593
 5221SOL    HW112386   4.100   1.303   1.959 -0.2873 -0.7519  0.0830
 5221SOL    HW212387   3.968   1.232   1.984 -0.3123 -0.8797 -0.4021
 5222SOL     OW12388   3.681   0.127   0.662  0.1822  0.4262  0.1527
 5222SOL    HW112389   3.774   0.134   0.641  0.3542  2.0742  1.2818
 5222SOL    HW212390   3.652   0.049   0.615  1.5066  1.3728 -2.4582
 5223SOL     OW12391   1.043   0.574   2.362 -0.6138 -0.0766  0.1673
 5223SOL    HW112392   1.111   0.512   2.386 -1.5634 -1.5623 -0.8354
 5223SOL    HW212393   1.026   0.623   2.442 -0.2593 -1.5314  1.1738
 5224SOL     OW12394   3.532   0.651   2.341  0.4116  0.0742  0.1242
 5224SOL    HW112395   3.445   0.690   2.335  0.4838  0.2345  0.1133
 5224SOL    HW212396   3.558   0.637   2.250  1.6239  2.7618 -0.0567
 5225SOL     OW12397   0.447   4.079   1.102  0.6122 -0.4274  0.0258
 5225SOL    HW112398   0.518   4.077   1.038  1.5916  1.0705  0.9965
 5225SOL    HW212399   0.367   4.081   1.049  1.4107  2.1468 -1.2820
 5226SOL     OW12400   3.849   2.663   1.416 -0.0900 -0.1938 -0.5267
 5226SOL    HW112401   3.817   2.727   1.479  0.4747  0.3682 -0.7954
 5226SOL    HW212402   3.868   2.715   1.337  0.6646 -0.6317 -0.6480
 5227SOL     OW12403   3.454   1.574   2.651 -0.3186 -0.0892  0.4092
 5227SOL    HW112404   3.365   1.562   2.684 -0.3448  0.2177  0.4523
 5227SOL    HW212405   3.486   1.653   2.695 -0.4538  0.4956 -0.5122
 5228SOL     OW12406   4.276   3.771   2.108  0.1366 -0.0618 -0.2549
 5228SOL    HW112407   4.229   3.847   2.143  1.7061  0.7658  0.1651
 5228SOL    HW212408   4.279   3.709   2.180  1.3097  0.6746  0.3611
 5229SOL     OW12409   4.103   1.013   2.099  0.0479 -0.7513 -0.1575
 5229SOL    HW112410   4.170   0.955   2.062  1.7013 -0.4850  2.2399
 5229SOL    HW212411   4.152   1.086   2.137 -1.7461  0.3042  0.2734
 5230SOL     OW12412   3.400   2.957   1.823  0.0354  0.4400  0.0430
 5230SOL    HW112413   3.326   2.955   1.763 -1.1642 -0.2676  1.4862
 5230SOL    HW212414   3.474   2.926   1.771 -0.5579  1.5574 -1.5365
 5231SOL     OW12415   4.315   4.129   0.643  0.3629  0.0432 -0.4256
 5231SOL    HW112416   4.370   4.051   0.651 -0.8459 -0.7239  0.9577
 5231SOL    HW212417   4.233   4.097   0.607 -0.8653  0.2403  1.9715
 5232SOL     OW12418   0.336   2.849   1.464  0.1003  0.3130 -0.1488
 5232SOL    HW112419   0.380   2.919   1.512  0.3083  0.3466 -0.3820
 5232SOL    HW212420   0.363   2.863   1.373 -1.6867  1.3309 -0.5736
 5233SOL     OW12421   3.678   1.621   0.966 -0.4677  0.1666  0.7469
 5233SOL    HW112422   3.730   1.701   0.973 -1.5614  0.9236  0.5260
 5233SOL    HW212423   3.587   1.652   0.958 -0.9650 -1.1126  1.1953
 5234SOL     OW12424   1.445   1.496   1.463 -0.8001  0.4807 -0.4127
 5234SOL    HW112425   1.384   1.549   1.514 -0.4166  0.8649 -0.3475
 5234SOL    HW212426   1.398   1.414   1.446 -0.5462 -0.0968  1.4744
 5235SOL     OW12427   4.153   0.629   0.893 -0.1508  0.5188 -0.4034
 5235SOL    HW112428   4.091   0.682   0.942 -0.3318 -0.5052  0.5241
 5235SOL    HW212429   4.174   0.681   0.815 -0.4984  1.8160  0.3432
 5236SOL     OW12430   3.130   0.963   2.162  0.0704 -0.4513  0.0023
 5236SOL    HW112431   3.036   0.957   2.181  0.1417 -0.2310  0.4592
 5236SOL    HW212432   3.143   1.052   2.130  0.2060 -0.2997  0.4651
 5237SOL     OW12433   3.354   3.000   3.767 -0.2335  0.1372  0.5457
 5237SOL    HW112434   3.412   3.061   3.811 -4.0854  3.9890  0.9411
 5237SOL    HW212435   3.334   3.042   3.683 -2.9958 -0.5109  0.7855
 5238SOL     OW12436   3.663   0.616   1.309  0.1586  0.3443 -0.0240
 5238SOL    HW112437   3.617   0.596   1.228  0.1923  0.1229  0.0100
 5238SOL    HW212438   3.593   0.621   1.375 -0.0007  1.7698 -0.2880
 5239SOL     OW12439   0.924   0.851   4.658  0.1216  0.9162 -0.4604
 5239SOL    HW112440   1.018   0.870   4.667 -0.0069  1.8816 -1.0168
 5239SOL    HW212441   0.881   0.924   4.702 -0.3874 -0.3232  1.2273
 5240SOL     OW12442   3.585   2.413   1.913 -0.2128  0.2915  0.0158
 5240SOL    HW112443   3.653   2.476   1.889  1.6709 -1.0294  1.5411
 5240SOL    HW212444   3.572   2.426   2.007  0.7260 -1.9276  0.5358
 5241SOL     OW12445   1.954   0.815   3.492 -0.2448 -0.2154 -0.0704
 5241SOL    HW112446   2.032   0.816   3.436 -0.8126  1.5434 -0.8777
 5241SOL    HW212447   1.971   0.882   3.558  0.4214 -2.2682  1.9721
 5242SOL     OW12448   4.035   2.638   1.835 -0.5161 -0.0689 -0.2514
 5242SOL    HW112449   4.015   2.545   1.829  0.1050 -0.4570  2.4213
 5242SOL    HW212450   4.110   2.651   1.777 -0.4162 -1.3117 -0.4174
 5243SOL     OW12451   3.305   4.282   3.288  0.3850  0.3888 -0.0001
 5243SOL    HW112452   3.325   4.252   3.199  1.3712  2.8987 -0.7044
 5243SOL    HW212453   3.388   4.312   3.323 -0.3544  1.4018  0.9613
 5244SOL     OW12454   0.395   1.801   6.689 -0.2227 -0.5527  0.2068
 5244SOL    HW112455   0.403   1.707   6.673  1.1180 -0.9215  2.5800
 5244SOL    HW212456   0.338   1.807   6.766 -0.1733  0.5739  0.1689
 5245SOL     OW12457   2.698   3.228   2.201  0.0016  0.4522  0.2159
 5245SOL    HW112458   2.750   3.307   2.218  0.4703  0.3868 -0.8391
 5245SOL    HW212459   2.612   3.262   2.175 -0.6623  0.5565  2.3231
 5246SOL     OW12460   1.609   2.096   2.377 -0.0542  0.0104  0.0686
 5246SOL    HW112461   1.686   2.099   2.435  0.7812 -1.7169 -0.8773
 5246SOL    HW212462   1.561   2.176   2.398  1.3537  0.5325  1.5747
 5247SOL     OW12463   0.122   3.953   1.440 -0.0599 -0.4753  0.1903
 5247SOL    HW112464   0.055   3.925   1.501 -0.5605  0.1806 -0.0464
 5247SOL    HW212465   0.143   4.043   1.465 -2.9385  1.2483 -2.7474
 5248SOL     OW12466   0.983   3.433   3.277 -0.2987 -0.0365  0.1942
 5248SOL    HW112467   0.915   3.398   3.336 -1.4414 -2.1795 -2.1697
 5248SOL    HW212468   1.052   3.367   3.279  0.5375  0.8341  0.5717
 5249SOL     OW12469   3.948   1.240   3.214 -0.1750 -0.2462  0.0087
 5249SOL    HW112470   4.035   1.201   3.221  0.2316  0.7695  0.9528
 5249SOL    HW212471   3.940   1.265   3.122  0.7726  0.1530  0.0182
 5250SOL     OW12472   0.939   2.136   4.172  0.1782 -0.2114 -0.1006
 5250SOL    HW112473   0.948   2.041   4.169 -1.4528 -0.3729 -2.3691
 5250SOL    HW212474   0.860   2.154   4.121  2.0553  2.5646 -2.2996
 5251SOL     OW12475   1.934   1.704   2.943 -0.1002  0.0455  0.3867
 5251SOL    HW112476   1.983   1.677   3.020  1.1436 -0.2894 -0.4885
 5251SOL    HW212477   1.987   1.773   2.902 -1.2963  1.0374  0.4262
 5252SOL     OW12478   3.585   0.054   1.898 -0.2167 -0.6744  0.5161
 5252SOL    HW112479   3.580  -0.025   1.845 -1.1916 -2.1517  2.6753
 5252SOL    HW212480   3.664   0.099   1.867 -1.7978 -0.2642 -3.6116
 5253SOL     OW12481   2.983   3.029   3.189  0.3781 -0.4190  0.2677
 5253SOL    HW112482   3.057   3.074   3.229 -0.0762 -0.5649  1.3029
 5253SOL    HW212483   2.906   3.076   3.220 -0.0447 -1.2787  0.5463
 5254SOL     OW12484   3.889   0.331   1.254 -0.2097 -0.7620 -0.9197
 5254SOL    HW112485   3.887   0.332   1.158  0.9362 -1.2060 -0.9695
 5254SOL    HW212486   3.919   0.418   1.278 -1.0283 -0.4699 -0.9348
 5255SOL     OW12487   1.474   0.416   4.985 -0.0722  0.4692 -0.4757
 5255SOL    HW112488   1.513   0.386   5.067 -0.8870 -1.0085 -0.5920
 5255SOL    HW212489   1.425   0.495   5.009 -1.3968 -0.6882  0.7451
 5256SOL     OW12490   1.370   0.183   3.050  0.4264  0.2519  0.0112
 5256SOL    HW112491   1.394   0.269   3.084  0.2736  0.4681 -0.4288
 5256SOL    HW212492   1.400   0.122   3.118 -0.4788  0.7184  0.8544
 5257SOL     OW12493   3.228   1.640   2.337  0.8838 -0.1894  0.3297
 5257SOL    HW112494   3.182   1.658   2.419  0.0168  0.3142 -0.2516
 5257SOL    HW212495   3.220   1.546   2.325  0.4867 -0.1844  0.5278
 5258SOL     OW12496   3.866   0.842   3.163 -0.1678 -0.3774 -0.6078
 5258SOL    HW112497   3.938   0.847   3.101 -0.1846 -0.9420 -0.6805
 5258SOL    HW212498   3.876   0.757   3.205 -0.0597  0.0602  0.2903
 5259SOL     OW12499   0.116   0.674   4.919  0.0754 -0.6205 -0.1868
 5259SOL    HW112500   0.076   0.678   4.832 -1.7691  1.0646  0.6714
 5259SOL    HW212501   0.186   0.739   4.915 -0.8877  0.4540 -0.0299
 5260SOL     OW12502   0.120   0.545   3.891  0.6747  0.3987  0.4017
 5260SOL    HW112503   0.077   0.460   3.900 -0.6571  1.1053  0.8394
 5260SOL    HW212504   0.083   0.583   3.812  1.2520  0.5919  0.2204
 5261SOL     OW12505   0.599   3.149   4.079  0.0688 -0.2842  0.5360
 5261SOL    HW112506   0.693   3.165   4.093  0.1580 -0.3886  0.0854
 5261SOL    HW212507   0.560   3.236   4.084  0.2249 -0.2101  0.5028
 5262SOL     OW12508   0.027   1.859   4.379 -0.1128  0.1578 -0.5540
 5262SOL    HW112509   0.104   1.913   4.399 -1.8108  1.9920  1.4865
 5262SOL    HW212510   0.025   1.854   4.284  3.5736 -1.6588 -0.7388
 5263SOL     OW12511   0.961   1.799   1.942  0.7465  0.3601  0.0059
 5263SOL    HW112512   0.957   1.854   2.020  2.8379  2.1663 -1.0281
 5263SOL    HW212513   0.987   1.713   1.973 -0.8024  0.3803  1.4968
 5264SOL     OW12514   2.803   4.241   3.551  0.0528  0.3378 -0.4728
 5264SOL    HW112515   2.708   4.252   3.552  0.2488  2.9716  1.1052
 5264SOL    HW212516   2.822   4.193   3.631  0.0913  0.4452 -0.4174
 5265SOL     OW12517   3.650   2.134   2.587 -0.1430 -0.3076  0.7401
 5265SOL    HW112518   3.584   2.066   2.572  0.0222 -0.5548  1.1186
 5265SOL    HW212519   3.688   2.150   2.501  0.5337 -1.4292  0.8159
 5266SOL     OW12520   2.920   0.763   3.652 -0.1641  0.0501 -0.2236
 5266SOL    HW112521   2.884   0.838   3.605  0.4049 -0.1417 -0.9955
 5266SOL    HW212522   3.013   0.783   3.662  0.1014 -0.7546 -0.8939
 5267SOL     OW12523   0.332   1.868   4.821  0.7594 -0.2541 -0.3493
 5267SOL    HW112524   0.306   1.940   4.878  1.8872  0.2993 -0.4941
 5267SOL    HW212525   0.386   1.910   4.754 -1.0123 -0.8016 -2.1950
 5268SOL     OW12526   2.645   2.261   3.977 -0.2433 -0.7475 -0.1753
 5268SOL    HW112527   2.685   2.180   4.010  1.0295  0.5586  1.6599
 5268SOL    HW212528   2.593   2.293   4.051  0.5825  0.9310 -0.2852
 5269SOL     OW12529   3.705   1.408   2.079 -0.0476 -0.2195  0.5539
 5269SOL    HW112530   3.675   1.477   2.138 -1.3629  1.9555 -2.3926
 5269SOL    HW212531   3.768   1.452   2.022 -0.6320 -1.5262 -1.1589
 5270SOL     OW12532   2.906   0.991   3.498 -0.1070 -0.0335 -0.2355
 5270SOL    HW112533   2.967   0.992   3.424  1.7604  0.0132  1.2154
 5270SOL    HW212534   2.843   1.060   3.479 -0.0315 -0.4099 -2.0312
 5271SOL     OW12535   2.494   4.136   4.707 -0.2002  0.1918 -0.3729
 5271SOL    HW112536   2.422   4.172   4.656  1.2822  0.7867 -2.1860
 5271SOL    HW212537   2.514   4.204   4.771 -0.4531  0.5719 -0.6907
 5272SOL     OW12538   2.638   1.028   2.989 -0.0130  0.1107 -0.5461
 5272SOL    HW112539   2.714   1.043   3.045  0.7747 -0.4122 -1.4445
 5272SOL    HW212540   2.669   1.049   2.901 -0.9888  0.1233 -0.9002
 5273SOL     OW12541   2.127   0.998   3.823  1.0373  0.4536  0.3360
 5273SOL    HW112542   2.100   1.004   3.914  0.4456  0.5062  0.1676
 5273SOL    HW212543   2.068   0.932   3.785  0.6616  1.0793 -0.2095
 5274SOL     OW12544   3.685   1.575   2.311  0.0521  0.3982 -0.1163
 5274SOL    HW112545   3.616   1.519   2.346 -1.4045  0.9946 -1.8726
 5274SOL    HW212546   3.639   1.654   2.282  1.8017  1.7667  0.6569
 5275SOL     OW12547   0.543   1.478   4.875  0.1524  0.7085 -0.1191
 5275SOL    HW112548   0.486   1.527   4.934  0.7597  0.3917  0.7535
 5275SOL    HW212549   0.484   1.420   4.827 -0.4177  1.3760 -0.2379
 5276SOL     OW12550   2.198   1.285   3.753 -0.6459 -0.0179  0.1192
 5276SOL    HW112551   2.119   1.305   3.702 -1.7434 -0.4772  1.5642
 5276SOL    HW212552   2.186   1.194   3.780  0.6865 -0.2812 -0.1330
 5277SOL     OW12553   0.148   0.675   2.221  0.5749 -0.0270  0.4262
 5277SOL    HW112554   0.082   0.698   2.156  0.8553  0.7486  0.4095
 5277SOL    HW212555   0.224   0.646   2.170 -0.0421 -1.8392  0.4504
 5278SOL     OW12556   2.265   1.909   3.332  0.3571  0.3344 -0.3378
 5278SOL    HW112557   2.199   1.870   3.275 -0.6673  0.4891  0.6965
 5278SOL    HW212558   2.276   1.846   3.403  0.1569  1.0009  0.2998
 5279SOL     OW12559   0.057   1.541   4.139 -0.1829  0.3733  0.5654
 5279SOL    HW112560   0.151   1.555   4.147 -0.0763  0.1738 -0.2754
 5279SOL    HW212561   0.043   1.521   4.047 -0.8256 -1.3335  1.0083
 5280SOL     OW12562   3.848   3.961   3.136  0.2386 -0.1418 -0.3979
 5280SOL    HW112563   3.859   3.951   3.041  1.6472  0.2123 -0.3000
 5280SOL    HW212564   3.759   3.994   3.147  0.2752  0.4412 -1.6584
 5281SOL     OW12565   3.326   4.068   2.664 -0.0185  0.0229  0.1000
 5281SOL    HW112566   3.273   4.138   2.627  0.4898  1.6969  2.2896
 5281SOL    HW212567   3.414   4.082   2.629 -0.3122 -0.8211 -1.0464
 5282SOL     OW12568   0.135   0.151   5.167  0.1766 -0.1171 -0.2265
 5282SOL    HW112569   0.160   0.067   5.205  0.6310  0.9234  1.9424
 5282SOL    HW212570   0.215   0.204   5.172 -0.2707  0.6496 -0.9825
 5283SOL     OW12571   0.698   0.444   6.110  0.7350  0.1761  0.2819
 5283SOL    HW112572   0.733   0.460   6.023  0.0639 -1.4598 -0.3365
 5283SOL    HW212573   0.609   0.413   6.095  1.4761 -2.8059  1.3001
 5284SOL     OW12574   0.370   2.362   6.054 -0.3121 -0.4589 -0.1596
 5284SOL    HW112575   0.331   2.370   6.141 -0.3703 -3.6844  0.2492
 5284SOL    HW212576   0.307   2.308   6.005  0.2258  0.4025 -1.8818
 5285SOL     OW12577   0.284   2.194   5.059  0.5556 -0.1223 -0.2601
 5285SOL    HW112578   0.198   2.183   5.019  1.5285  1.6060 -3.1447
 5285SOL    HW212579   0.278   2.276   5.108  0.2658 -0.5932  0.5066
 5286SOL     OW12580   2.440   0.348   3.205  0.5457  0.3924 -0.0116
 5286SOL    HW112581   2.482   0.301   3.133 -0.2812 -2.5807  1.3086
 5286SOL    HW212582   2.512   0.373   3.263  0.8598 -1.1974  0.3118
 5287SOL     OW12583   0.534   3.816   5.601 -0.5839 -0.0991  0.4054
 5287SOL    HW112584   0.571   3.740   5.646  1.8773  0.0956 -1.1042
 5287SOL    HW212585   0.481   3.779   5.531  0.9783 -0.5286 -0.6203
 5288SOL     OW12586   0.764   1.670   4.919  0.8846 -0.6585  0.4500
 5288SOL    HW112587   0.833   1.684   4.855  0.4386 -0.9706 -0.1083
 5288SOL    HW212588   0.691   1.632   4.869 -0.1383  0.7841  0.7685
 5289SOL     OW12589   3.927   0.918   5.142  0.0595  0.0599 -0.1445
 5289SOL    HW112590   3.887   0.943   5.059  1.2413  0.8808 -0.5047
 5289SOL    HW212591   4.016   0.952   5.137  0.2472 -0.1090  1.3530
 5290SOL     OW12592   0.203   3.656   6.646  0.3149 -0.0747  0.0331
 5290SOL    HW112593   0.285   3.655   6.597  0.8626  0.0734  0.9327
 5290SOL    HW212594   0.145   3.598   6.597  1.4281 -1.3669  0.1942
 5291SOL     OW12595   0.033   1.524   5.493 -0.2718 -0.2912  0.7848
 5291SOL    HW112596   0.019   1.616   5.471  0.7909 -0.7457 -2.4478
 5291SOL    HW212597   0.128   1.514   5.495 -0.3160 -1.6043 -0.9339
 5292SOL     OW12598   3.882   1.793   5.081 -0.2467 -0.8582 -0.3563
 5292SOL    HW112599   3.786   1.788   5.087 -0.4776  0.8883 -1.7168
 5292SOL    HW212600   3.901   1.770   4.990  0.6552 -1.1513 -0.1076
 5293SOL     OW12601   0.557   3.369   6.229 -0.2168  0.2381 -0.1309
 5293SOL    HW112602   0.541   3.367   6.323 -0.6441  1.5156 -0.1511
 5293SOL    HW212603   0.474   3.400   6.192  0.7040  2.1908 -0.6840
 5294SOL     OW12604   0.985   0.441   3.559 -1.1758 -0.5795  0.5527
 5294SOL    HW112605   0.932   0.462   3.636 -0.2577 -0.3392  1.1288
 5294SOL    HW212606   1.063   0.495   3.567 -0.0208 -2.1751  0.6379
 5295SOL     OW12607   1.960   0.885   6.782 -0.0028  0.0741 -0.3641
 5295SOL    HW112608   2.027   0.882   6.714  0.3588 -0.1679 -0.0027
 5295SOL    HW212609   2.009   0.882   6.864 -0.3548  1.8564 -0.0569
 5296SOL     OW12610   0.626   2.153   6.214  0.0321 -0.0077 -0.3263
 5296SOL    HW112611   0.683   2.217   6.171 -0.1918 -0.7514 -1.7959
 5296SOL    HW212612   0.588   2.102   6.142 -2.1065  0.1318  0.6054
 5297SOL     OW12613   0.317   1.686   3.754 -0.2247 -0.1773 -0.3017
 5297SOL    HW112614   0.222   1.680   3.758 -0.3454  1.5114  0.3082
 5297SOL    HW212615   0.342   1.630   3.680 -1.5150 -1.9334  0.5389
 5298SOL     OW12616   0.502   1.993   5.366  0.7274  0.4048  0.5592
 5298SOL    HW112617   0.574   2.049   5.337  1.1034 -0.0456  0.6173
 5298SOL    HW212618   0.452   1.975   5.286  0.3989  1.1054  0.5968
 5299SOL     OW12619   0.392   0.231   5.130  0.6331 -0.3478 -0.8341
 5299SOL    HW112620   0.377   0.325   5.124  1.3754 -0.2584 -1.4003
 5299SOL    HW212621   0.487   0.221   5.132  0.5609 -1.0654 -0.3606
 5300SOL     OW12622   1.510   3.469   4.149  0.0201  0.2886 -0.5107
 5300SOL    HW112623   1.487   3.481   4.241  1.1404 -2.1519  0.1814
 5300SOL    HW212624   1.436   3.420   4.112  0.9176 -1.5051 -0.0425
 5301SOL     OW12625   0.276   1.239   5.225 -0.4636  0.0975 -0.3748
 5301SOL    HW112626   0.220   1.211   5.297 -1.2275  1.3173 -0.4609
 5301SOL    HW212627   0.251   1.330   5.209  1.3296  0.5933 -0.6281
 5302SOL     OW12628   3.967   1.167   6.477 -0.0875 -0.2157  0.2691
 5302SOL    HW112629   3.875   1.182   6.456 -0.2996  0.0327  1.2876
 5302SOL    HW212630   3.984   1.224   6.553  1.1944  0.5564 -0.5515
 5303SOL     OW12631   2.367   0.251   4.450  0.1313 -0.2431  0.0670
 5303SOL    HW112632   2.409   0.274   4.533  2.1758 -0.0182 -0.9612
 5303SOL    HW212633   2.329   0.333   4.419  0.5984  0.0025  0.1277
 5304SOL     OW12634   0.241   1.730   3.277  0.7523  0.5900 -0.3440
 5304SOL    HW112635   0.148   1.716   3.259  0.7349  0.8546 -0.4623
 5304SOL    HW212636   0.245   1.813   3.324  0.6178 -0.8968  2.5408
 5305SOL     OW12637   1.084   4.001   5.186  0.1734 -0.0144 -0.1163
 5305SOL    HW112638   1.016   4.046   5.136  1.4407  2.1703 -0.0297
 5305SOL    HW212639   1.162   4.006   5.130 -0.1879 -5.0702 -1.5805
 5306SOL     OW12640   0.345   2.433   5.219 -0.3411  0.3439  0.4607
 5306SOL    HW112641   0.332   2.523   5.188 -1.5104 -0.4971 -1.6287
 5306SOL    HW212642   0.438   2.416   5.205 -0.4370  0.6994 -0.6899
 5307SOL     OW12643   3.964   2.780   6.334 -0.4542 -0.0613  0.2957
 5307SOL    HW112644   3.980   2.872   6.357 -2.0832 -0.0232  1.4533
 5307SOL    HW212645   3.977   2.777   6.239 -0.5337  1.4117  0.2071
 5308SOL     OW12646   3.434   0.058   6.062  0.3293 -0.2097 -0.6553
 5308SOL    HW112647   3.494   0.080   5.991  0.3137 -1.0914 -0.9533
 5308SOL    HW212648   3.426   0.139   6.113  0.8153  0.2562 -1.3064
 5309SOL     OW12649   2.998   3.768   5.763 -0.6353 -0.3786 -0.1126
 5309SOL    HW112650   2.951   3.694   5.724 -2.5677 -1.0293  3.1217
 5309SOL    HW212651   2.928   3.825   5.797  0.8788  0.5809  1.5305
 5310SOL     OW12652   1.759   3.478   4.000  0.4535  0.2448 -0.2439
 5310SOL    HW112653   1.678   3.489   4.050 -0.2116  2.2062 -1.6154
 5310SOL    HW212654   1.752   3.390   3.964 -0.0619 -0.3885  1.3258
 5311SOL     OW12655   0.044   4.063   4.656 -0.2010  0.2605  0.1911
 5311SOL    HW112656   0.105   4.125   4.696  1.6170 -1.2828 -0.0408
 5311SOL    HW212657  -0.016   4.039   4.726  0.7443  0.2797  1.0274
 5312SOL     OW12658   3.710   1.093   6.102  0.2375 -0.2701 -0.4592
 5312SOL    HW112659   3.752   1.121   6.184  1.3733 -0.0752 -1.0894
 5312SOL    HW212660   3.718   1.169   6.044 -1.9848  0.1800 -0.2709
 5313SOL     OW12661   1.186   0.492   4.722 -0.7247  0.1053 -0.5319
 5313SOL    HW112662   1.161   0.432   4.792 -1.9207  0.2101 -0.8342
 5313SOL    HW212663   1.203   0.575   4.767  2.4213 -0.7361  0.0776
 5314SOL     OW12664   3.099   0.858   3.173 -0.3203  0.2964 -0.3703
 5314SOL    HW112665   3.146   0.844   3.090 -1.2474 -0.4311 -0.7993
 5314SOL    HW212666   3.168   0.879   3.236  1.1589 -4.0157 -0.1730
 5315SOL     OW12667   4.144   1.581   5.937  0.0349 -0.0757  0.1665
 5315SOL    HW112668   4.107   1.494   5.951  1.3338 -0.5894  0.5424
 5315SOL    HW212669   4.209   1.568   5.867 -1.6112  1.1305 -1.6908
 5316SOL     OW12670   3.989   2.026   3.816 -0.4489  0.6553  0.2981
 5316SOL    HW112671   3.983   2.003   3.909  0.6748  0.1304  0.2564
 5316SOL    HW212672   3.953   2.115   3.812  0.0595  0.9313  1.3442
 5317SOL     OW12673   2.220   1.233   3.044 -0.0394  0.0313  0.2004
 5317SOL    HW112674   2.211   1.201   2.954  1.6389 -0.3832  0.1386
 5317SOL    HW212675   2.224   1.153   3.097  1.0612  0.1951  0.3905
 5318SOL     OW12676   1.343   2.715   3.934 -0.2200  0.3624  0.0184
 5318SOL    HW112677   1.418   2.754   3.890 -0.8577 -0.1767 -1.6179
 5318SOL    HW212678   1.381   2.661   4.003  1.0382 -1.2931 -1.8778
 5319SOL     OW12679   3.280   2.714   6.897 -0.4829 -0.1328 -0.3739
 5319SOL    HW112680   3.327   2.699   6.815  3.7019  0.2270  1.7093
 5319SOL    HW212681   3.268   2.626   6.934  0.2848 -0.0950 -0.0372
 5320SOL     OW12682   4.152   1.571   4.883  0.7670 -0.0905 -0.7493
 5320SOL    HW112683   4.237   1.599   4.915 -0.0620  2.1702 -0.3065
 5320SOL    HW212684   4.158   1.579   4.788  1.1949 -0.4461 -0.7545
 5321SOL     OW12685   3.668   1.261   5.086  0.3043  0.0981  0.4989
 5321SOL    HW112686   3.674   1.331   5.151  0.1344  1.4682 -0.9028
 5321SOL    HW212687   3.755   1.221   5.085  0.9726  1.5120  0.0299
 5322SOL     OW12688   3.443   3.196   4.250  0.0257  0.2113 -0.0973
 5322SOL    HW112689   3.468   3.270   4.195  1.3083 -0.8979 -1.0784
 5322SOL    HW212690   3.410   3.130   4.188 -0.4589 -0.2911  0.6774
 5323SOL     OW12691   0.977   1.484   5.039  0.0534  0.1265  0.0071
 5323SOL    HW112692   0.907   1.425   5.012 -0.1950 -0.7979  2.3960
 5323SOL    HW212693   0.931   1.560   5.075  0.3552  0.8610 -1.1034
 5324SOL     OW12694   0.479   1.061   6.041  0.1904  0.2611  0.4901
 5324SOL    HW112695   0.418   0.998   6.002 -0.1617  1.1162 -0.4215
 5324SOL    HW212696   0.456   1.064   6.133 -1.5361  0.9276  0.0865
 5325SOL     OW12697   4.174   1.834   5.101 -0.3678 -0.0272 -0.3085
 5325SOL    HW112698   4.078   1.837   5.107 -0.3427  1.8629 -0.3625
 5325SOL    HW212699   4.194   1.876   5.017  0.5245 -0.2891 -0.2375
 5326SOL     OW12700   3.365   0.786   5.228  0.3927 -0.1464  0.0906
 5326SOL    HW112701   3.404   0.827   5.151 -0.0290  0.2425  0.0784
 5326SOL    HW212702   3.388   0.694   5.221  0.7690 -0.0255 -0.2458
 5327SOL     OW12703   1.515   0.256   5.246  0.6590 -0.2109  0.2276
 5327SOL    HW112704   1.471   0.176   5.217 -0.7245  0.7554 -0.4331
 5327SOL    HW212705   1.606   0.229   5.259  0.2455 -1.8753 -0.0310
 5328SOL     OW12706   1.086   2.939   6.157 -0.5116  0.1250  0.7678
 5328SOL    HW112707   1.102   2.908   6.068 -4.8016  1.4282 -0.6994
 5328SOL    HW212708   1.125   2.872   6.214  1.8019 -1.0831 -2.0089
 5329SOL     OW12709   2.534   0.098   5.180 -0.3005  0.1614 -0.2702
 5329SOL    HW112710   2.608   0.110   5.240 -2.0111  0.8006  1.8682
 5329SOL    HW212711   2.484   0.026   5.218 -2.2520  1.5818  0.0328
 5330SOL     OW12712   2.413   3.918   5.126 -0.4339  0.3183  0.1299
 5330SOL    HW112713   2.471   3.860   5.176 -0.2603 -2.0596 -2.6052
 5330SOL    HW212714   2.333   3.867   5.114 -1.1366  1.5397 -0.5021
 5331SOL     OW12715   3.714   1.880   2.970 -0.2802 -0.0064  0.3161
 5331SOL    HW112716   3.725   1.923   3.055  1.2121 -0.5508  0.4292
 5331SOL    HW212717   3.753   1.941   2.907 -0.9222  0.1641  0.0756
 5332SOL     OW12718   3.194   0.932   6.641  0.1599 -0.2393 -0.1452
 5332SOL    HW112719   3.187   0.867   6.570  0.9936 -0.1877 -0.2757
 5332SOL    HW212720   3.173   1.015   6.598  0.9863 -0.1614 -0.4172
 5333SOL     OW12721   3.407   3.234   7.711  0.2073  0.0949  0.1732
 5333SOL    HW112722   3.502   3.227   7.702  0.0249 -1.7429 -0.9700
 5333SOL    HW212723   3.379   3.146   7.738 -1.1874  0.5205  0.2062
 5334SOL     OW12724   3.889   0.042   6.961  0.5552 -0.0470  0.0090
 5334SOL    HW112725   3.923   0.013   6.877  3.2749 -0.4993  1.1626
 5334SOL    HW212726   3.859  -0.039   7.003 -0.2196  0.0926 -0.2656
 5335SOL     OW12727   0.471   2.148   6.468  0.5897 -0.3148 -0.1778
 5335SOL    HW112728   0.460   2.199   6.387  0.9718  0.1350  0.0494
 5335SOL    HW212729   0.391   2.096   6.474  1.1361 -1.4021 -1.5680
 5336SOL     OW12730   4.249   2.378   5.598 -0.3046 -0.1804 -0.2247
 5336SOL    HW112731   4.291   2.437   5.536 -0.8122 -0.9681 -1.3613
 5336SOL    HW212732   4.168   2.351   5.555 -0.9325 -0.3551  1.0096
 5337SOL     OW12733   2.231   4.036   6.570 -0.5304  0.5096  0.0839
 5337SOL    HW112734   2.209   3.945   6.590 -0.1155  0.3345 -0.2435
 5337SOL    HW212735   2.326   4.039   6.575 -0.4957  0.7341 -0.7205
 5338SOL     OW12736   0.686   2.568   6.350 -0.4787 -0.2366 -0.1495
 5338SOL    HW112737   0.612   2.625   6.370 -0.0651 -0.1102  1.0652
 5338SOL    HW212738   0.764   2.621   6.369 -0.0894 -0.9946  0.4201
 5339SOL     OW12739   4.075   1.320   5.917 -0.6001 -0.1901 -0.1206
 5339SOL    HW112740   4.088   1.279   6.002 -0.8063  0.9226  0.4787
 5339SOL    HW212741   4.120   1.263   5.855  0.1961 -0.6270  0.8327
 5340SOL     OW12742   4.290   3.718   7.658  0.7445  0.4894  1.1060
 5340SOL    HW112743   4.282   3.782   7.586 -2.0900 -1.1751 -0.2570
 5340SOL    HW212744   4.260   3.766   7.735  2.2383  1.8234  0.9161
 5341SOL     OW12745   4.054   0.759   7.111  0.5407 -0.9303 -0.3135
 5341SOL    HW112746   4.074   0.844   7.149  0.3711 -0.5077 -1.1475
 5341SOL    HW212747   4.105   0.696   7.163 -0.0806 -0.4376  0.9373
 5342SOL     OW12748   4.194   1.716   6.969 -0.3649  0.2046  0.3117
 5342SOL    HW112749   4.230   1.634   7.002 -0.5938  0.9519  2.6613
 5342SOL    HW212750   4.178   1.768   7.048  0.5847  2.8586 -1.1213
 5343SOL     OW12751   1.160   0.917   5.503  0.2642 -0.3238  0.6226
 5343SOL    HW112752   1.160   0.916   5.599  3.3182  0.6756  0.7137
 5343SOL    HW212753   1.111   0.838   5.479  0.5155 -1.2945  3.0226
 5344SOL     OW12754   0.211   0.329   7.252 -0.0398 -0.2277  0.1819
 5344SOL    HW112755   0.294   0.298   7.218  0.2168  0.1505  0.4496
 5344SOL    HW212756   0.191   0.407   7.200  0.5309  0.5578  1.1058
 5345SOL     OW12757   3.649   0.255   7.683  0.2906  0.1059 -0.0800
 5345SOL    HW112758   3.741   0.279   7.673  0.4114  0.5258  1.6610
 5345SOL    HW212759   3.604   0.338   7.701 -0.1385 -0.2865  0.7340
 5346SOL     OW12760   0.867   1.581   7.097 -0.2211  0.1671  0.1988
 5346SOL    HW112761   0.908   1.496   7.111  1.7662  1.0322 -0.1252
 5346SOL    HW212762   0.778   1.570   7.131  0.6039 -1.4363  2.0440
 5347SOL     OW12763   3.173   2.318   7.701  0.0140 -0.4972  0.1169
 5347SOL    HW112764   3.225   2.274   7.634 -0.9731  0.3967 -1.2753
 5347SOL    HW212765   3.231   2.320   7.778  2.4703  1.2913 -1.5952
 5348SOL     OW12766   3.094   0.993   6.111 -0.0195  0.1022 -0.4511
 5348SOL    HW112767   3.163   1.020   6.050 -0.5078  0.0569 -1.0341
 5348SOL    HW212768   3.092   0.898   6.105 -0.4297  0.1270 -0.7756
 5349SOL     OW12769   0.589   0.166   7.467 -0.0471 -0.4450  0.3752
 5349SOL    HW112770   0.496   0.183   7.485  0.0211  0.5844 -0.1814
 5349SOL    HW212771   0.631   0.168   7.553 -0.2753  0.8361  0.4674
 5350SOL     OW12772   3.692   1.268   6.486  0.6892 -0.0914 -0.3515
 5350SOL    HW112773   3.625   1.337   6.492  2.6831  1.9016  0.2670
 5350SOL    HW212774   3.642   1.186   6.487 -1.7047  1.2778  0.5817
 5351SOL     OW12775   3.216   1.586   7.434  0.2564  0.5702 -0.1033
 5351SOL    HW112776   3.263   1.628   7.506 -1.7798  1.0117  1.0388
 5351SOL    HW212777   3.285   1.565   7.370  2.1099  0.3014  1.8585
 5352SOL     OW12778   3.076   0.503   7.065 -0.2556 -0.2785  0.2086
 5352SOL    HW112779   3.013   0.573   7.047 -0.7022 -0.5386  0.7121
 5352SOL    HW212780   3.082   0.500   7.161  1.4550  0.5488  0.1551
 5353SOL     OW12781   3.644   1.322   6.905 -0.2730  0.1483  0.1341
 5353SOL    HW112782   3.618   1.375   6.830 -0.6404 -0.9079 -0.5041
 5353SOL    HW212783   3.609   1.235   6.886  0.7906 -0.4628  0.8921
 5354SOL     OW12784   4.240   0.253   7.695 -0.0026 -0.4238 -0.2416
 5354SOL    HW112785   4.156   0.216   7.723 -0.1322  0.4424  0.5287
 5354SOL    HW212786   4.222   0.345   7.677  0.7648 -0.2461 -0.1430
 5355SOL     OW12787   0.477   3.191   7.207  0.2011  0.1503  0.5103
 5355SOL    HW112788   0.562   3.188   7.165 -0.2427 -1.1965 -0.3342
 5355SOL    HW212789   0.431   3.263   7.163 -0.3143 -1.3231 -1.4914
 5356SOL     OW12790   4.299   0.920   7.707 -0.0288  0.3058  0.0717
 5356SOL    HW112791   4.345   1.004   7.710 -0.1268  0.4183 -1.0616
 5356SOL    HW212792   4.370   0.855   7.710  0.0631  0.4318  0.6803
 5357SOL     OW12793   2.607   1.091   6.717  0.5446  0.0188  0.1251
 5357SOL    HW112794   2.566   1.169   6.680  0.2283 -0.2251 -0.0400
 5357SOL    HW212795   2.677   1.069   6.656  0.7466  0.2743  0.2627
 5358SOL     OW12796   0.271   1.105   5.854  0.0204 -0.0398 -0.4083
 5358SOL    HW112797   0.346   1.164   5.854  0.1541 -0.1819  0.9453
 5358SOL    HW212798   0.201   1.154   5.897 -0.4099 -0.2296 -0.8742
 5359SOL     OW12799   0.495   1.512   7.210 -0.0012  0.1509 -0.5893
 5359SOL    HW112800   0.523   1.601   7.229 -2.7548  0.8804  0.5074
 5359SOL    HW212801   0.550   1.457   7.265  1.0793  1.2105 -0.5676
 5360SOL     OW12802   2.972   0.275   6.894 -0.1261 -0.4273  0.4246
 5360SOL    HW112803   2.992   0.331   6.970  0.5684  1.2410 -0.9077
 5360SOL    HW212804   3.021   0.195   6.910  1.9663  0.8125  0.6710
 5361SOL     OW12805   0.204   0.265   7.684  0.1034 -0.6122  0.5245
 5361SOL    HW112806   0.216   0.181   7.728 -0.3090 -1.2369 -0.5440
 5361SOL    HW212807   0.110   0.268   7.664 -0.1296  0.6554  1.6319
 5362SOL     OW12808   0.312   1.444   5.594 -0.7131  0.3954  0.3614
 5362SOL    HW112809   0.358   1.459   5.676  0.8644 -0.8007 -0.2366
 5362SOL    HW212810   0.360   1.497   5.530 -0.2202 -0.7256 -0.2371
 5363SOL     OW12811   2.535   0.809   5.567 -0.2587 -0.2069  0.3370
 5363SOL    HW112812   2.607   0.873   5.573 -0.8740  0.4968  0.3561
 5363SOL    HW212813   2.461   0.860   5.535 -0.7561 -0.9260  0.3340
 5364SOL     OW12814   3.699   0.697   6.745 -0.1772 -0.2298  0.9230
 5364SOL    HW112815   3.730   0.759   6.679 -0.6125  0.3713  1.2726
 5364SOL    HW212816   3.623   0.740   6.785  0.2219 -0.4753  1.9820
 5365SOL     OW12817   3.600   1.651   7.697  0.0378  0.1255  0.1674
 5365SOL    HW112818   3.521   1.598   7.704  1.0462 -1.5294 -0.3465
 5365SOL    HW212819   3.600   1.683   7.607 -0.7679  1.3779  0.5867
 5366SOL     OW12820   2.022   0.196   5.038 -0.0701 -0.4144  0.0172
 5366SOL    HW112821   1.968   0.255   4.985  0.8248 -0.5468 -1.1029
 5366SOL    HW212822   1.963   0.126   5.065 -0.1124 -1.6022 -2.7876
 5367SOL     OW12823   0.588   1.750   5.126 -0.0843  0.1605  0.2469
 5367SOL    HW112824   0.653   1.722   5.062 -0.0493  2.0561 -0.6100
 5367SOL    HW212825   0.560   1.837   5.096 -2.2012 -0.1158  1.1979
 5368SOL     OW12826   1.209   2.179   6.938 -0.2667 -0.2514  0.0656
 5368SOL    HW112827   1.207   2.199   7.032 -2.1193 -1.9110  0.4397
 5368SOL    HW212828   1.265   2.102   6.932 -0.0071 -0.0401 -0.2244
 5369SOL     OW12829   3.968   0.534   6.774 -0.3134  0.0947 -0.0239
 5369SOL    HW112830   4.003   0.609   6.823  0.2127  0.0040 -0.2583
 5369SOL    HW212831   3.874   0.551   6.769 -0.4170 -0.0383  1.2570
 5370SOL     OW12832   1.450   4.125   6.822  0.4370 -0.3847  0.3085
 5370SOL    HW112833   1.430   4.069   6.747  1.2943 -1.1573  0.6378
 5370SOL    HW212834   1.370   4.177   6.835  1.0380  1.5393 -2.6135
 5371SOL     OW12835   2.080   2.751   4.326 -0.0584 -0.3813 -0.4494
 5371SOL    HW112836   2.139   2.684   4.289 -0.5527 -0.2385 -1.5533
 5371SOL    HW212837   2.009   2.701   4.365  0.8543 -0.5618  1.0522
 5372SOL     OW12838   0.483   3.942   7.402 -0.1563 -0.4182  0.1948
 5372SOL    HW112839   0.530   4.016   7.365  0.2838  0.0595  1.6569
 5372SOL    HW212840   0.392   3.954   7.374 -0.0833  0.6680  0.4114
 5373SOL     OW12841   4.149   3.841   5.085  0.7744 -0.2734  0.4372
 5373SOL    HW112842   4.102   3.897   5.147 -0.3012  1.3790 -1.7455
 5373SOL    HW212843   4.094   3.841   5.007  3.6466  0.5493 -1.7534
 5374SOL     OW12844   3.806   1.460   7.713  0.4514  0.0759  0.4573
 5374SOL    HW112845   3.740   1.527   7.695  0.9211  0.6533  0.7962
 5374SOL    HW212846   3.758   1.378   7.718  0.1605 -0.0806 -2.6752
 5375SOL     OW12847   4.240   0.710   5.875 -0.2413 -0.7173  0.4116
 5375SOL    HW112848   4.251   0.626   5.830 -0.1587 -1.2363  1.3727
 5375SOL    HW212849   4.318   0.761   5.852  0.5922 -1.5798  1.2371
 5376SOL     OW12850   4.235   3.050   7.118 -0.1356  0.6193  0.2914
 5376SOL    HW112851   4.162   2.992   7.095 -0.8387  1.9587 -1.0247
 5376SOL    HW212852   4.279   3.005   7.190 -2.0919 -0.3640  0.9581
 5377SOL     OW12853   3.140   3.297   4.642  0.2678 -0.0544 -0.2973
 5377SOL    HW112854   3.108   3.333   4.559  0.7084  0.5946 -0.1948
 5377SOL    HW212855   3.161   3.206   4.623 -1.9558 -0.6361 -0.2904
 5378SOL     OW12856   4.111   0.741   7.664 -0.1182 -0.2291 -0.3218
 5378SOL    HW112857   4.034   0.783   7.702  0.9595  1.3291  0.2326
 5378SOL    HW212858   4.183   0.802   7.681  1.2208 -1.5557 -0.9670
 5379SOL     OW12859   2.689   1.559   6.747  0.4777  0.3523  0.1276
 5379SOL    HW112860   2.643   1.632   6.706  0.4108 -0.1231 -0.6744
 5379SOL    HW212861   2.778   1.563   6.712  0.6118  0.3349  0.4597
 5380SOL     OW12862   0.100   0.611   7.343  0.3193 -0.6181  0.3398
 5380SOL    HW112863   0.163   0.540   7.332  1.1751 -0.1875  2.0886
 5380SOL    HW212864   0.153   0.686   7.372 -0.7180  0.4024 -0.3168
 5381SOL     OW12865   0.362   0.515   7.717 -0.5419 -0.5674  0.1848
 5381SOL    HW112866   0.305   0.451   7.760  0.3099 -1.3802  0.1272
 5381SOL    HW212867   0.361   0.490   7.624 -0.8229 -0.0061  0.0263
 5382SOL     OW12868   3.794   0.996   7.455  0.5069 -0.3718 -0.0072
 5382SOL    HW112869   3.713   0.945   7.456  0.0740  0.2137 -1.4229
 5382SOL    HW212870   3.791   1.044   7.372  2.1282 -0.0340  0.0834
 5383SOL     OW12871   4.199   0.481   6.634  0.2206 -0.0321  0.1953
 5383SOL    HW112872   4.175   0.507   6.545  0.2184 -0.3535  0.0987
 5383SOL    HW212873   4.115   0.477   6.681  0.0711 -1.1269 -0.1345
 5384SOL     OW12874   3.797   0.016   7.664 -0.1340  0.4366 -0.2711
 5384SOL    HW112875   3.719   0.055   7.705 -0.8551  0.8074 -1.9306
 5384SOL    HW212876   3.762  -0.043   7.598  1.0052  0.1926 -0.6669
 5385SOL     OW12877   2.965   1.365   7.391 -0.6898 -0.5646 -0.2849
 5385SOL    HW112878   3.015   1.376   7.471 -1.0550 -2.2369  0.2150
 5385SOL    HW212879   2.876   1.392   7.414 -0.4688  0.4537 -0.5909
 5386SOL     OW12880   3.751   4.139   7.016  0.2016 -0.2490  0.4566
 5386SOL    HW112881   3.692   4.065   6.999 -0.6831  0.2691  1.1910
 5386SOL    HW212882   3.717   4.178   7.097  0.4421  1.1885 -0.1233
 5387SOL     OW12883   4.093   1.003   7.235 -0.0109 -0.3443  0.3854
 5387SOL    HW112884   4.085   1.016   7.329  0.0225  0.8725  0.2371
 5387SOL    HW212885   4.105   1.091   7.199  3.2148 -0.9960 -0.4530
 5388SOL     OW12886   3.639   1.269   7.719 -0.1239  0.2682  0.0828
 5388SOL    HW112887   3.596   1.185   7.734 -0.6120  0.3971 -0.5720
 5388SOL    HW212888   3.568   1.332   7.713  0.1518  0.5095 -0.8355
 5389SOL     OW12889   4.045   3.055   7.648  0.1035 -0.1777 -0.8540
 5389SOL    HW112890   4.080   3.143   7.637 -0.7992  0.2431 -0.4609
 5389SOL    HW212891   3.952   3.063   7.627  0.0394 -1.0655 -0.9438
 5390SOL     OW12892   4.046   0.426   7.483  0.1094  0.0498  0.2106
 5390SOL    HW112893   4.036   0.346   7.430  1.1392  0.1632 -0.1890
 5390SOL    HW212894   4.138   0.424   7.511 -0.5731 -0.3384  2.5793
 5391SOL     OW12895   3.411   1.428   7.699 -0.2489  0.1124  0.7183
 5391SOL    HW112896   3.369   1.344   7.716 -0.9463  0.1567 -0.6540
 5391SOL    HW212897   3.342   1.493   7.713 -0.1404  0.3306  0.2774
 5392SOL     OW12898   3.966   1.965   0.646  0.4374 -0.1847 -0.5603
 5392SOL    HW112899   3.996   1.875   0.663  0.6978  0.3445  2.1407
 5392SOL    HW212900   4.047   2.016   0.643  0.1798  0.2646  0.0371
 5393SOL     OW12901   3.668   1.724   0.691 -0.5625  0.2716  0.0279
 5393SOL    HW112902   3.693   1.813   0.670 -1.9662  0.4214 -1.1825
 5393SOL    HW212903   3.616   1.732   0.771 -1.8419  0.7597 -0.8159
 5394SOL     OW12904   3.787   1.992   2.097  0.5307  0.1267  0.4188
 5394SOL    HW112905   3.850   1.941   2.048  0.1116  0.1896 -0.1957
 5394SOL    HW212906   3.743   2.046   2.031  0.1694  0.4293  0.8988
 5395SOL     OW12907   3.404   1.881   2.383  0.2464 -0.2093 -0.4942
 5395SOL    HW112908   3.480   1.894   2.327  0.3287 -0.9450 -0.5546
 5395SOL    HW212909   3.373   1.793   2.363  0.6629 -0.7501  1.0774
 5396SOL     OW12910   3.677   2.300   0.666 -0.2597 -0.7259  0.0216
 5396SOL    HW112911   3.770   2.287   0.682 -0.3645  0.1004  1.3923
 5396SOL    HW212912   3.641   2.212   0.656  0.2718 -1.1739  1.8699
 5397SOL     OW12913   3.590   1.804   2.696  0.0701 -0.4669  0.3443
 5397SOL    HW112914   3.657   1.781   2.632  0.0387 -0.4297  0.2974
 5397SOL    HW212915   3.639   1.823   2.776  0.4356  2.7768 -0.5257
 5398SOL     OW12916   2.879   3.363   1.151  0.6329  0.4406 -0.1874
 5398SOL    HW112917   2.890   3.323   1.065  1.9306  0.7805 -0.2044
 5398SOL    HW212918   2.797   3.327   1.185  0.0694  0.3606 -1.5938
 5399SOL     OW12919   0.594   1.250   3.505 -0.0254  0.1317  0.5351
 5399SOL    HW112920   0.593   1.312   3.579 -0.8097  0.6018  0.1438
 5399SOL    HW212921   0.686   1.245   3.480 -0.0191  1.8115  0.0464
 5400SOL     OW12922   3.798   2.851   0.680  0.1945  0.1284  0.1359
 5400SOL    HW112923   3.888   2.868   0.651  1.2836 -0.5231  2.8395
 5400SOL    HW212924   3.778   2.763   0.647  2.1349 -1.4299  2.7220
 5401SOL     OW12925   2.822   2.498   2.087 -0.7297 -0.3834 -0.2447
 5401SOL    HW112926   2.915   2.489   2.108 -1.0830 -0.8149  1.2557
 5401SOL    HW212927   2.782   2.418   2.120 -1.6371 -0.2421 -0.9559
 5402SOL     OW12928   0.043   2.837   1.473 -0.4336  1.1137 -0.2521
 5402SOL    HW112929   0.136   2.823   1.487 -0.0665  2.5705 -1.0812
 5402SOL    HW212930   0.021   2.780   1.399 -1.1418 -2.2496  2.2987
 5403SOL     OW12931   0.638   0.028   2.009 -0.2314 -0.2044 -0.0513
 5403SOL    HW112932   0.603  -0.006   2.091 -0.3630  0.2647  0.0921
 5403SOL    HW212933   0.677   0.112   2.033 -2.2331  1.0085 -0.8306
 5404SOL     OW12934   1.105   1.657   1.305 -0.0867 -0.7189 -0.2275
 5404SOL    HW112935   1.067   1.570   1.308 -0.8540 -0.3738  0.5770
 5404SOL    HW212936   1.037   1.715   1.339  0.6208  0.1166 -0.1762
 5405SOL     OW12937   4.287   1.367   1.927  0.0907  0.4155  0.2308
 5405SOL    HW112938   4.349   1.431   1.960  1.4491 -0.3997 -0.6424
 5405SOL    HW212939   4.270   1.394   1.836 -1.0441  0.7686  0.5283
 5406SOL     OW12940   2.726   0.258   2.444 -0.2785  0.1371 -0.2619
 5406SOL    HW112941   2.702   0.169   2.416  0.7710  0.2700 -1.7194
 5406SOL    HW212942   2.680   0.270   2.527 -0.1031 -1.9320  0.2022
 5407SOL     OW12943   4.167   2.865   1.182  0.2681 -0.4811  0.7667
 5407SOL    HW112944   4.257   2.897   1.177  0.4732 -1.2724 -1.9041
 5407SOL    HW212945   4.176   2.775   1.214  0.2386 -0.0287  2.1108
 5408SOL     OW12946   0.152   2.281   0.917 -0.0202 -0.1474 -0.4284
 5408SOL    HW112947   0.082   2.231   0.876 -0.9974  1.0629 -0.2725
 5408SOL    HW212948   0.183   2.341   0.849 -0.4775  0.6730  0.0746
 5409SOL     OW12949   3.085   3.512   1.680 -0.2494 -0.6390 -0.0463
 5409SOL    HW112950   3.131   3.437   1.718  2.6615  0.4154 -1.2108
 5409SOL    HW212951   3.043   3.555   1.754  2.9764 -0.1411  1.6807
 5410SOL     OW12952   4.250   1.018   1.443  0.1562  0.3013 -0.1399
 5410SOL    HW112953   4.206   0.933   1.434  1.1676 -0.2969  0.4352
 5410SOL    HW212954   4.235   1.044   1.533 -0.4158  0.8967 -0.3990
 5411SOL     OW12955   3.138   2.440   3.069 -0.3180  0.4319 -0.1376
 5411SOL    HW112956   3.157   2.468   2.979 -0.9656  0.1573 -0.3691
 5411SOL    HW212957   3.209   2.380   3.091  1.3556  2.5077  0.5289
 5412SOL     OW12958   0.492   2.176   1.515 -0.4457 -0.2129 -0.0359
 5412SOL    HW112959   0.522   2.085   1.509 -0.1877 -0.1465  0.2015
 5412SOL    HW212960   0.427   2.185   1.445  1.6609  0.2764 -2.0433
 5413SOL     OW12961   4.006   1.672   2.781 -0.5545  0.5970  0.4796
 5413SOL    HW112962   4.006   1.671   2.685  1.1197 -0.1632  0.4664
 5413SOL    HW212963   3.914   1.685   2.804 -0.8030  2.3043 -1.2215
 5414SOL     OW12964   0.120   2.969   0.684  0.1706 -0.1570 -0.1610
 5414SOL    HW112965   0.065   3.018   0.745  0.4379  0.6794 -0.5743
 5414SOL    HW212966   0.198   3.022   0.673  0.5743 -0.7913 -0.4490
 5415SOL     OW12967   3.785   0.318   3.170 -0.1464 -0.5284  0.9000
 5415SOL    HW112968   3.709   0.278   3.127 -0.1695  1.1536 -0.7804
 5415SOL    HW212969   3.781   0.410   3.143  2.4866 -0.3819  0.7814
 5416SOL     OW12970   4.089   3.486   1.854 -1.2420  0.3066  0.0495
 5416SOL    HW112971   3.994   3.479   1.861 -1.2476  1.2976  1.1886
 5416SOL    HW212972   4.106   3.489   1.760 -2.2209 -1.1001 -0.2120
 5417SOL     OW12973   4.303   2.288   1.735  0.0583  0.4076 -0.1683
 5417SOL    HW112974   4.266   2.200   1.736 -1.4103  0.9276 -1.9194
 5417SOL    HW212975   4.245   2.339   1.792 -0.9146  0.8353 -1.4905
 5418SOL     OW12976   3.568   3.231   2.250 -0.0402 -0.3039 -0.0395
 5418SOL    HW112977   3.630   3.283   2.301 -0.5749 -0.1025  0.3996
 5418SOL    HW212978   3.528   3.172   2.313 -0.6504 -0.1058 -0.2408
 5419SOL     OW12979   3.865   2.898   1.579  0.0201  0.0154 -0.1448
 5419SOL    HW112980   3.890   2.919   1.489 -0.9450  2.7809  0.1161
 5419SOL    HW212981   3.947   2.903   1.629  0.2210  0.7433 -0.5354
 5420SOL     OW12982   4.073   3.587   0.723  0.6524 -0.6161  0.1984
 5420SOL    HW112983   4.161   3.558   0.747  0.5305 -0.9008  0.2988
 5420SOL    HW212984   4.087   3.649   0.652  0.8149 -2.2369 -1.2385
 5421SOL     OW12985   3.843   1.809   1.883  0.4144  0.5855 -0.0799
 5421SOL    HW112986   3.749   1.824   1.874  0.0946 -1.7346 -1.3990
 5421SOL    HW212987   3.881   1.844   1.802  0.9894  3.0120  1.1343
 5422SOL     OW12988   2.989   3.887   3.023  0.0218  0.1048  0.0652
 5422SOL    HW112989   3.011   3.884   3.116  1.1350  0.1341 -0.1920
 5422SOL    HW212990   3.065   3.850   2.978 -1.0005 -1.0781 -0.7666
 5423SOL     OW12991   2.851   2.620   1.841  0.0804  0.4117 -0.1721
 5423SOL    HW112992   2.916   2.558   1.807  0.5282  1.3520 -1.1135
 5423SOL    HW212993   2.835   2.592   1.931 -0.2667 -1.4870 -0.7709
 5424SOL     OW12994   3.799   1.726   2.516 -0.5379 -0.2877  0.6036
 5424SOL    HW112995   3.761   1.708   2.430  0.1330 -1.9380  0.6151
 5424SOL    HW212996   3.893   1.711   2.504  0.2865  3.8754  0.5328
 5425SOL     OW12997   3.579   3.518   2.342 -0.2390  0.0274 -0.1945
 5425SOL    HW112998   3.511   3.469   2.389 -0.5514  2.9335  2.7682
 5425SOL    HW212999   3.536   3.548   2.262 -1.2667 -1.1492 -0.1207
 5426SOL     OW13000   0.111   4.143   1.976 -0.0917 -0.0718  0.2101
 5426SOL    HW113001   0.126   4.188   2.060 -1.6004  0.5255  0.2008
 5426SOL    HW213002   0.137   4.052   1.993  1.3290  0.4085  0.7694
 5427SOL     OW13003   3.714   1.989   0.686  0.5697 -0.4205 -0.1110
 5427SOL    HW113004   3.804   2.010   0.662  0.2339  0.1944 -0.8732
 5427SOL    HW213005   3.716   1.977   0.781  0.8778  2.6970  0.3720
 5428SOL     OW13006   3.238   3.590   2.541 -0.3423 -0.0731 -0.3136
 5428SOL    HW113007   3.321   3.544   2.529 -0.6394 -0.6065 -0.3545
 5428SOL    HW213008   3.261   3.683   2.533  0.4309 -0.1541  0.7082
 5429SOL     OW13009   3.414   1.805   1.547 -0.4570  0.2152  0.1880
 5429SOL    HW113010   3.446   1.718   1.572 -0.8236  0.0066 -0.0722
 5429SOL    HW213011   3.361   1.833   1.622 -0.7798 -0.0114  0.0444
 5430SOL     OW13012   0.182   4.024   1.001  0.2641 -0.1794 -0.1744
 5430SOL    HW113013   0.107   4.077   1.028 -0.2938 -1.1870  0.3397
 5430SOL    HW213014   0.235   4.083   0.947 -0.4815  0.7929  0.1177
 5431SOL     OW13015   3.825   0.967   2.123  0.3633 -0.3704  0.1675
 5431SOL    HW113016   3.909   1.009   2.142  0.1195  0.2056 -0.0052
 5431SOL    HW213017   3.839   0.875   2.145  1.3800 -0.4976 -0.9021
 5432SOL     OW13018   2.982   2.750   2.768  0.2856 -0.4382  0.0754
 5432SOL    HW113019   2.964   2.819   2.832 -2.1065  2.2140 -3.0718
 5432SOL    HW213020   2.902   2.698   2.764  0.0786 -0.0705 -1.1969
 5433SOL     OW13021   0.645   1.667   3.851 -0.5732 -0.0694 -0.1814
 5433SOL    HW113022   0.678   1.602   3.789 -0.0154  1.9467 -2.1361
 5433SOL    HW213023   0.550   1.667   3.838 -0.3368  1.5591 -2.4555
 5434SOL     OW13024   0.349   1.886   1.787  0.5498  0.0419  0.6648
 5434SOL    HW113025   0.331   1.873   1.694  1.4934 -0.4694  0.5440
 5434SOL    HW213026   0.442   1.866   1.797  0.7211  1.1243  1.5280
 5435SOL     OW13027   4.185   1.083   3.256  0.0324 -0.4808  0.8111
 5435SOL    HW113028   4.167   0.990   3.246 -0.6428 -0.1057 -2.2848
 5435SOL    HW213029   4.272   1.096   3.218 -0.6855  0.3985 -0.6190
 5436SOL     OW13030   4.272   1.247   2.167 -0.2902  0.0975  0.1720
 5436SOL    HW113031   4.281   1.321   2.226  1.6311  0.9840 -1.1176
 5436SOL    HW213032   4.301   1.281   2.082  1.5787 -2.3392 -0.2844
 5437SOL     OW13033   1.556   2.738   2.012  0.0830 -0.4223 -0.3682
 5437SOL    HW113034   1.513   2.756   1.929  1.7379  2.7639 -0.7000
 5437SOL    HW213035   1.547   2.819   2.062  1.9652 -1.0996  1.2223
 5438SOL     OW13036   3.607   3.653   4.712  0.3710 -0.2886 -0.1498
 5438SOL    HW113037   3.614   3.735   4.661  0.8036 -0.5197 -0.4697
 5438SOL    HW213038   3.564   3.592   4.652 -1.1685  0.0659  0.5406
 5439SOL     OW13039   1.198   1.484   1.916  0.2163 -0.4518 -0.5280
 5439SOL    HW113040   1.217   1.535   1.995  0.7651 -1.2078 -0.1627
 5439SOL    HW213041   1.283   1.454   1.885 -0.0778 -0.9977 -0.8379
 5440SOL     OW13042   4.008   4.110   0.859  0.3253  0.5350 -0.4801
 5440SOL    HW113043   4.067   4.056   0.913 -1.2897 -0.3072  0.5012
 5440SOL    HW213044   4.000   4.192   0.908  0.3959  0.5216 -0.4453
 5441SOL     OW13045   0.599   3.700   1.534  0.6413 -0.1143 -0.2238
 5441SOL    HW113046   0.591   3.786   1.493  0.1092  0.4191  0.9535
 5441SOL    HW213047   0.520   3.692   1.587  1.0313 -1.0333  0.2366
 5442SOL     OW13048   0.493   0.857   3.039 -0.3694  0.3623  0.3234
 5442SOL    HW113049   0.408   0.852   2.996 -0.2357  0.7065  0.0130
 5442SOL    HW213050   0.472   0.868   3.131 -0.6634  0.9665  0.1881
 5443SOL     OW13051   2.190   1.255   1.361  0.4279  0.5814 -0.2243
 5443SOL    HW113052   2.098   1.264   1.386  0.4375  2.1789 -0.6444
 5443SOL    HW213053   2.198   1.308   1.281  1.8184  0.8588  0.0841
 5444SOL     OW13054   0.784   1.216   3.881 -0.1555 -0.0380  0.0217
 5444SOL    HW113055   0.856   1.158   3.857  0.1592  0.4593 -0.2718
 5444SOL    HW213056   0.810   1.252   3.966 -0.6884 -0.8608  0.5470
 5445SOL     OW13057   0.283   3.413   1.487  0.5966 -0.2251 -0.3175
 5445SOL    HW113058   0.339   3.450   1.555  1.0839 -0.3538 -0.6428
 5445SOL    HW213059   0.280   3.481   1.419  1.5917 -0.8163 -0.9708
 5446SOL     OW13060   3.530   3.421   4.132 -0.0444 -0.3559  0.2417
 5446SOL    HW113061   3.617   3.422   4.092 -0.8465 -1.0614 -1.6465
 5446SOL    HW213062   3.472   3.457   4.064 -1.2022  0.3439  1.5543
 5447SOL     OW13063   1.617   0.910   3.131  0.3221  0.1887 -0.7933
 5447SOL    HW113064   1.576   0.838   3.084  0.1138  0.8987 -1.7256
 5447SOL    HW213065   1.697   0.872   3.167  0.5704 -0.3415 -1.8580
 5448SOL     OW13066   2.269   0.129   3.293 -0.5228 -0.2109 -0.3334
 5448SOL    HW113067   2.286   0.217   3.260  0.5554 -0.3222 -0.1103
 5448SOL    HW213068   2.260   0.075   3.215  2.1664 -0.5041 -0.5296
 5449SOL     OW13069   0.650   1.131   2.327  0.6182 -0.2596 -0.4722
 5449SOL    HW113070   0.658   1.135   2.422  1.2679  0.9326 -0.5517
 5449SOL    HW213071   0.707   1.060   2.300  0.1432 -0.8472  0.0510
 5450SOL     OW13072   3.304   2.982   2.387 -0.5338  0.0546  0.6958
 5450SOL    HW113073   3.229   2.922   2.384 -0.5983  0.1658 -0.8977
 5450SOL    HW213074   3.265   3.069   2.371  0.0515 -0.0691 -1.8567
 5451SOL     OW13075   3.966   1.467   2.273 -0.1372  0.2524 -0.1157
 5451SOL    HW113076   3.953   1.490   2.181  0.2252 -0.3917 -0.3390
 5451SOL    HW213077   3.878   1.466   2.310 -0.5193 -1.4421 -0.9539
 5452SOL     OW13078   1.097   2.807   2.094 -0.1237  0.2097  0.1038
 5452SOL    HW113079   1.164   2.874   2.110  0.6329 -0.4729 -0.1302
 5452SOL    HW213080   1.128   2.761   2.015 -0.2116 -0.9242  0.7048
 5453SOL     OW13081   0.537   0.243   3.661 -0.0605 -0.6541  0.4721
 5453SOL    HW113082   0.465   0.207   3.608 -0.2848  0.6434 -0.1427
 5453SOL    HW213083   0.596   0.282   3.597  0.0236  0.3243  1.1319
 5454SOL     OW13084   0.265   2.893   4.358  0.4122 -0.4019  0.5835
 5454SOL    HW113085   0.175   2.898   4.391 -0.2057 -2.5253 -0.5904
 5454SOL    HW213086   0.269   2.958   4.288 -0.0196  0.0680  0.9833
 5455SOL     OW13087   0.158   1.432   2.919  0.2899  0.1914 -0.7056
 5455SOL    HW113088   0.182   1.518   2.885 -1.0637  1.2614  0.8909
 5455SOL    HW213089   0.063   1.426   2.905  0.0884 -0.3163  0.7226
 5456SOL     OW13090   0.359   2.317   4.471 -0.0449  0.6057 -0.0084
 5456SOL    HW113091   0.344   2.295   4.563  1.4028  0.0097  0.1120
 5456SOL    HW213092   0.286   2.374   4.447 -1.3946 -0.6073  1.0176
 5457SOL     OW13093   0.381   1.230   3.286  0.5476 -0.4996  0.0424
 5457SOL    HW113094   0.331   1.312   3.290  0.5807 -0.4912  0.2559
 5457SOL    HW213095   0.455   1.244   3.345  1.9170  0.2512 -1.7596
 5458SOL     OW13096   0.109   1.843   1.958 -0.0854 -0.4427 -0.9054
 5458SOL    HW113097   0.199   1.841   1.924  0.7663 -0.8610  1.2348
 5458SOL    HW213098   0.094   1.754   1.990 -0.0076  0.3774  1.6727
 5459SOL     OW13099   0.046   3.651   3.293  0.0076 -0.3042  0.2537
 5459SOL    HW113100  -0.020   3.691   3.350 -0.2145 -1.3239  0.7359
 5459SOL    HW213101   0.022   3.558   3.290 -0.1724 -0.2334 -1.7751
 5460SOL     OW13102   4.269   3.787   2.426  0.0276 -0.0083 -0.3006
 5460SOL    HW113103   4.292   3.742   2.507  0.9536 -0.6822 -0.9105
 5460SOL    HW213104   4.188   3.745   2.397  2.0508 -3.0582 -2.0724
 5461SOL     OW13105   3.727   1.065   3.218  0.0935 -0.0131 -0.6878
 5461SOL    HW113106   3.799   1.128   3.214 -0.1211  0.2251 -0.8023
 5461SOL    HW213107   3.770   0.980   3.223  0.3915  0.0733 -1.6028
 5462SOL     OW13108   1.325   4.173   2.358 -0.2509  0.0658  0.3668
 5462SOL    HW113109   1.416   4.151   2.376 -0.9155 -1.3819  2.3538
 5462SOL    HW213110   1.302   4.239   2.424 -0.8993 -0.3289  0.5524
 5463SOL     OW13111   2.565   3.780   0.936 -0.1813 -0.2846 -0.1343
 5463SOL    HW113112   2.572   3.777   0.840 -1.4447 -0.3457 -0.2479
 5463SOL    HW213113   2.480   3.739   0.954 -1.0063  1.7293  0.8509
 5464SOL     OW13114   2.639   2.101   2.242  0.1707  0.0765  0.0303
 5464SOL    HW113115   2.559   2.114   2.190 -0.7616 -1.5528  0.9608
 5464SOL    HW213116   2.664   2.189   2.269 -1.7138  0.6069  0.2493
 5465SOL     OW13117   1.780   1.331   3.372  0.0383  0.2755  0.1642
 5465SOL    HW113118   1.764   1.359   3.462  1.8742  1.7048  0.1069
 5465SOL    HW213119   1.788   1.236   3.378 -0.7511  0.2575  1.3358
 5466SOL     OW13120   3.991   2.164   2.323  0.0208  0.1171  0.7345
 5466SOL    HW113121   3.903   2.168   2.360 -0.0486  2.0399  0.4704
 5466SOL    HW213122   4.031   2.248   2.348  0.0294  1.5196 -3.3167
 5467SOL     OW13123   1.047   2.423   4.614  0.2634  0.0972  0.1904
 5467SOL    HW113124   1.135   2.460   4.626  0.5201 -0.8655  1.5461
 5467SOL    HW213125   1.042   2.404   4.520  1.1207  1.0911 -0.0696
 5468SOL     OW13126   1.771   2.909   2.361 -0.0575  0.2136 -0.0618
 5468SOL    HW113127   1.761   2.882   2.452 -0.2749  0.5861  0.0258
 5468SOL    HW213128   1.763   3.004   2.363 -0.9365  0.1589 -0.5754
 5469SOL     OW13129   3.629   3.407   4.938  0.0335  0.3018  0.0861
 5469SOL    HW113130   3.629   3.339   4.871  1.2910  0.9607 -0.6126
 5469SOL    HW213131   3.656   3.486   4.893 -0.9679  1.2002  0.9845
 5470SOL     OW13132   2.892   1.683   2.348 -0.1272  0.3740  0.4729
 5470SOL    HW113133   2.900   1.619   2.277 -0.9154 -0.1835  0.8829
 5470SOL    HW213134   2.938   1.643   2.422 -1.0298  0.0495  0.8742
 5471SOL     OW13135   0.060   4.240   2.660  0.0948 -0.6478  0.0825
 5471SOL    HW113136   0.028   4.223   2.572 -0.6142 -1.6075  0.5109
 5471SOL    HW213137  -0.013   4.218   2.718 -0.0097  1.4732  0.8523
 5472SOL     OW13138   0.179   1.720   2.815  0.1075  0.4963 -0.3485
 5472SOL    HW113139   0.173   1.802   2.864  0.8117  0.9823 -1.0576
 5472SOL    HW213140   0.273   1.707   2.802  0.0583 -0.9124  0.5510
 5473SOL     OW13141   3.051   3.630   3.460  0.1162 -0.3039 -0.2057
 5473SOL    HW113142   2.967   3.584   3.465  0.0008 -0.0970 -0.2336
 5473SOL    HW213143   3.032   3.709   3.410 -0.4801  1.4858  2.6265
 5474SOL     OW13144   4.184   1.702   1.557 -0.0015 -0.3701 -0.1606
 5474SOL    HW113145   4.249   1.764   1.524  1.1792 -0.3991  1.9980
 5474SOL    HW213146   4.100   1.744   1.537  0.6261 -0.0058 -2.3474
 5475SOL     OW13147   4.080   1.516   3.466  0.2293  0.4512  0.1036
 5475SOL    HW113148   4.024   1.575   3.516  1.0167  0.1426  1.3767
 5475SOL    HW213149   4.019   1.467   3.410 -0.3711  3.6702 -2.4328
 5476SOL     OW13150   3.865   1.165   4.332 -1.0503 -0.3157  0.3145
 5476SOL    HW113151   3.923   1.238   4.312  0.0579 -1.1070  0.5186
 5476SOL    HW213152   3.865   1.112   4.252  0.5580 -1.6296  1.1161
 5477SOL     OW13153   0.861   3.689   4.101  0.3581  0.0157 -0.0205
 5477SOL    HW113154   0.831   3.645   4.180 -1.0364 -2.0106 -1.5679
 5477SOL    HW213155   0.797   3.758   4.086 -1.3097 -1.6765 -1.0759
 5478SOL     OW13156   4.090   0.194   4.529 -0.4633  0.2807  0.1986
 5478SOL    HW113157   4.070   0.270   4.474  0.5492 -1.0495 -2.1586
 5478SOL    HW213158   4.029   0.202   4.602 -0.0863  3.5888  0.3447
 5479SOL     OW13159   3.010   1.627   2.903 -0.1831 -0.1156  0.1125
 5479SOL    HW113160   2.986   1.628   2.996 -0.7539  2.9814  0.0421
 5479SOL    HW213161   2.988   1.715   2.872  2.5030 -0.1730 -2.3333
 5480SOL     OW13162   1.539   1.711   5.012  0.5569 -0.3009 -0.1994
 5480SOL    HW113163   1.596   1.740   5.083 -1.8613  2.1079  0.9249
 5480SOL    HW213164   1.486   1.641   5.051  1.5963 -1.4419 -0.7697
 5481SOL     OW13165   0.094   1.151   2.598  0.4156  0.6187  0.0614
 5481SOL    HW113166   0.034   1.157   2.523 -0.2757  0.3259  0.5800
 5481SOL    HW213167   0.178   1.183   2.564  0.4488 -0.6771 -1.2018
 5482SOL     OW13168   0.302   1.327   4.765 -0.0672 -0.6401 -0.2025
 5482SOL    HW113169   0.278   1.295   4.678  0.4724 -0.9399 -0.2457
 5482SOL    HW213170   0.228   1.382   4.792  1.1269  2.2235 -2.2416
 5483SOL     OW13171   3.665   1.647   3.319  0.4678 -0.2000 -0.0272
 5483SOL    HW113172   3.580   1.615   3.290 -0.8631  1.4536  1.7387
 5483SOL    HW213173   3.662   1.741   3.301  2.0103 -0.1433 -0.0966
 5484SOL     OW13174   0.693   2.144   4.060 -0.4476  0.0368  0.3503
 5484SOL    HW113175   0.695   2.172   3.968  0.8684  2.2525  0.9932
 5484SOL    HW213176   0.625   2.198   4.100 -1.4214 -1.3262  0.6221
 5485SOL     OW13177   0.926   3.401   3.659  0.0565  0.2832  0.0379
 5485SOL    HW113178   0.904   3.404   3.566  0.5247  0.3609 -0.0744
 5485SOL    HW213179   0.881   3.324   3.693 -0.2989  0.3819 -0.2020
 5486SOL     OW13180   3.929   4.165   3.789  0.2412  0.3004  0.4523
 5486SOL    HW113181   3.957   4.127   3.706 -2.5674 -0.0446 -0.4491
 5486SOL    HW213182   3.902   4.090   3.842 -3.4062  0.6716 -0.5823
 5487SOL     OW13183   3.381   3.394   4.748  0.0807  0.2959  0.1838
 5487SOL    HW113184   3.377   3.415   4.841  1.0463 -1.8606  0.7779
 5487SOL    HW213185   3.294   3.358   4.729  0.1024  0.1162  0.4173
 5488SOL     OW13186   3.739   3.622   4.441  0.5202 -0.7226 -0.1011
 5488SOL    HW113187   3.665   3.570   4.410 -0.1861  0.3300 -0.2119
 5488SOL    HW213188   3.720   3.711   4.413  0.9280 -0.1142  1.4716
 5489SOL     OW13189   0.020   2.588   4.795  0.0865 -0.5118 -0.0376
 5489SOL    HW113190  -0.014   2.649   4.729 -0.3283 -2.7965 -2.0534
 5489SOL    HW213191  -0.058   2.553   4.837  0.1554 -1.6537 -0.8190
 5490SOL     OW13192   0.124   1.109   2.313  0.2761 -1.0581  0.5023
 5490SOL    HW113193   0.211   1.112   2.273 -0.4221 -1.1088 -1.0758
 5490SOL    HW213194   0.065   1.143   2.245 -0.9320 -0.9264  1.5818
 5491SOL     OW13195   4.185   3.951   5.452  0.4887  0.4633 -0.2481
 5491SOL    HW113196   4.215   3.963   5.542 -0.2332  0.1181  0.0446
 5491SOL    HW213197   4.170   3.857   5.444  0.1060  0.5511 -0.5858
 5492SOL     OW13198   0.517   2.302   4.801 -0.2203  0.4440 -0.1137
 5492SOL    HW113199   0.581   2.282   4.732 -0.5543 -0.0869 -0.2734
 5492SOL    HW213200   0.509   2.398   4.799  1.1118  0.5919  0.4050
 5493SOL     OW13201   0.085   1.851   6.288  0.3635 -0.0697  0.6296
 5493SOL    HW113202   0.059   1.941   6.308 -0.7116 -0.5198  1.3233
 5493SOL    HW213203   0.161   1.836   6.344  1.2095  0.7319 -0.2550
 5494SOL     OW13204   0.259   3.550   4.904  0.5813  0.0665  0.1400
 5494SOL    HW113205   0.297   3.636   4.922 -0.7329  0.7998 -0.4888
 5494SOL    HW213206   0.233   3.518   4.991  0.8894  0.3780  0.3541
 5495SOL     OW13207   1.064   2.367   2.741 -0.0442  0.6025 -0.0479
 5495SOL    HW113208   1.112   2.395   2.663  0.1717 -0.0911 -0.1690
 5495SOL    HW213209   1.013   2.292   2.712  0.9979 -0.4600  0.7589
 5496SOL     OW13210   0.651   1.411   3.737  0.0886  0.0688 -0.1428
 5496SOL    HW113211   0.684   1.337   3.788  1.5747  1.6530  1.3270
 5496SOL    HW213212   0.559   1.418   3.761  0.2743 -0.4887  0.7561
 5497SOL     OW13213   0.818   1.780   6.268 -0.8410  0.5835  0.0482
 5497SOL    HW113214   0.773   1.826   6.339  0.3858  3.0431 -0.6781
 5497SOL    HW213215   0.785   1.820   6.188  1.0753  1.0344 -0.5740
 5498SOL     OW13216   0.563   3.691   6.208  0.2563 -0.4720  0.4989
 5498SOL    HW113217   0.556   3.617   6.148 -1.2945  0.1813 -0.1926
 5498SOL    HW213218   0.604   3.760   6.156 -1.2294  0.1445  0.0910
 5499SOL     OW13219   0.861   2.964   4.013  0.3548  0.2766 -0.2760
 5499SOL    HW113220   0.796   2.940   3.947  1.7329 -0.6069 -1.3507
 5499SOL    HW213221   0.844   3.056   4.030 -2.0032 -0.2055  0.4457
 5500SOL     OW13222   1.025   1.667   2.396 -0.0087 -0.1100  0.1795
 5500SOL    HW113223   1.095   1.602   2.404 -0.9143 -1.7580 -3.1928
 5500SOL    HW213224   1.071   1.751   2.394  1.5425 -0.8800  1.1628
 5501SOL     OW13225   1.289   0.021   4.818 -1.0401 -0.0767 -0.2023
 5501SOL    HW113226   1.196   0.019   4.799 -0.8843  0.8996 -1.1448
 5501SOL    HW213227   1.301   0.097   4.876 -1.0374 -1.1227  1.2210
 5502SOL     OW13228   2.192   1.562   4.316 -0.8179 -0.5892 -0.2893
 5502SOL    HW113229   2.285   1.572   4.297 -0.9348  2.7198  0.3133
 5502SOL    HW213230   2.184   1.583   4.409 -2.0608 -2.1028 -0.0071
 5503SOL     OW13231   0.406   0.942   3.296 -0.1678 -0.1767  0.2259
 5503SOL    HW113232   0.452   0.935   3.380 -1.5231  2.1167  1.2514
 5503SOL    HW213233   0.391   1.036   3.285 -1.0269 -0.5224 -2.0593
 5504SOL     OW13234   1.366   1.489   4.780 -0.1100 -0.3850  0.0363
 5504SOL    HW113235   1.370   1.395   4.763  1.4965 -0.2015 -0.8735
 5504SOL    HW213236   1.342   1.496   4.872 -2.3242 -1.6061 -0.3783
 5505SOL     OW13237   3.609   2.288   5.535  0.4694 -0.3561  0.9337
 5505SOL    HW113238   3.644   2.200   5.521  1.0607 -0.2663  1.7487
 5505SOL    HW213239   3.663   2.324   5.606 -0.7622  0.0980  1.6735
 5506SOL     OW13240   2.210   3.201   5.080 -0.1810  0.1551  0.1030
 5506SOL    HW113241   2.206   3.296   5.096  1.9866  0.3552 -0.3190
 5506SOL    HW213242   2.278   3.170   5.140 -1.1575 -1.2277  0.5278
 5507SOL     OW13243   3.830   3.389   4.537  0.4795 -0.1208  0.7622
 5507SOL    HW113244   3.786   3.473   4.523 -1.5448 -1.2294  0.0129
 5507SOL    HW213245   3.766   3.337   4.585  0.4312 -2.2136 -1.3817
 5508SOL     OW13246   1.820   0.979   4.278 -0.3827  0.1004  0.0703
 5508SOL    HW113247   1.885   0.928   4.326 -1.3903 -1.1510  0.1658
 5508SOL    HW213248   1.757   1.007   4.344 -0.7181  0.0676 -0.2313
 5509SOL     OW13249   2.907   3.587   5.599 -0.1736 -0.1801 -0.0357
 5509SOL    HW113250   2.951   3.508   5.630  0.2806 -0.2925 -0.9064
 5509SOL    HW213251   2.959   3.614   5.523 -1.0824  0.2117 -0.5353
 5510SOL     OW13252   0.187   2.758   6.570 -0.1412 -0.6267  0.1343
 5510SOL    HW113253   0.187   2.845   6.609 -1.2670 -0.5022 -0.1018
 5510SOL    HW213254   0.266   2.755   6.516  0.2065  0.0273  0.5968
 5511SOL     OW13255   4.067   3.983   4.535  0.0812 -0.0100  0.4754
 5511SOL    HW113256   4.080   3.899   4.579  0.7915 -0.1063  0.0822
 5511SOL    HW213257   4.108   4.047   4.593  0.8002 -0.1075  0.0795
 5512SOL     OW13258   4.095   2.985   4.165  0.2899  0.4456 -0.6947
 5512SOL    HW113259   4.141   2.967   4.082  0.2817 -0.6368 -0.4757
 5512SOL    HW213260   4.005   2.957   4.149  0.6195 -1.1999  0.1408
 5513SOL     OW13261   1.377   3.394   5.076  0.9215  0.8434 -0.2354
 5513SOL    HW113262   1.340   3.370   4.992 -1.0521  1.7987  0.2921
 5513SOL    HW213263   1.367   3.316   5.130  0.3344  0.8683 -0.3094
 5514SOL     OW13264   4.317   2.165   4.147 -0.2105  0.3072  0.5709
 5514SOL    HW113265   4.339   2.075   4.124 -1.4327  0.1629 -0.0801
 5514SOL    HW213266   4.402   2.209   4.153  0.3350 -0.5305 -0.6124
 5515SOL     OW13267   2.628   2.659   4.214  0.1509  0.6655 -0.0393
 5515SOL    HW113268   2.554   2.699   4.167  0.8914 -0.3404 -2.2030
 5515SOL    HW213269   2.632   2.570   4.180  1.3519  0.1775  1.3024
 5516SOL     OW13270   3.893   2.897   2.913  0.5604  0.9715 -0.2240
 5516SOL    HW113271   3.856   2.924   2.829 -1.4847 -3.6231 -1.1012
 5516SOL    HW213272   3.966   2.840   2.890  0.6990  0.5761  1.1202
 5517SOL     OW13273   1.449   3.047   4.640 -0.6976  0.0710 -0.3929
 5517SOL    HW113274   1.497   3.038   4.557 -0.7997 -2.8203 -0.2388
 5517SOL    HW213275   1.501   2.997   4.703 -1.9756  0.0049  0.6464
 5518SOL     OW13276   0.716   3.425   6.908  0.1972  0.0992  0.5352
 5518SOL    HW113277   0.624   3.440   6.887  0.3245 -1.2284 -1.2016
 5518SOL    HW213278   0.717   3.342   6.956  0.2485  1.5500  3.1989
 5519SOL     OW13279   2.134   2.070   3.696  0.3676  0.0757  0.3288
 5519SOL    HW113280   2.191   2.067   3.773 -0.4963  0.0361  0.9857
 5519SOL    HW213281   2.153   2.154   3.655  1.2785 -0.1691  0.2283
 5520SOL     OW13282   1.568   0.360   6.796 -0.3424  0.3589 -0.4749
 5520SOL    HW113283   1.625   0.289   6.767  1.2287  0.8505  1.1913
 5520SOL    HW213284   1.588   0.369   6.889 -1.4675  2.1243 -0.3702
 5521SOL     OW13285   2.579   3.213   5.175  1.0499 -0.1675  0.0843
 5521SOL    HW113286   2.508   3.167   5.220 -0.3614  0.7197 -1.1371
 5521SOL    HW213287   2.628   3.257   5.245 -0.5490  0.4632  0.8642
 5522SOL     OW13288   1.339   0.376   5.425  0.4020  0.3228  0.3570
 5522SOL    HW113289   1.411   0.351   5.367 -0.4984  0.2135 -0.7530
 5522SOL    HW213290   1.332   0.471   5.416 -0.3775  0.1993 -0.5221
 5523SOL     OW13291   4.146   4.116   4.137 -0.1913  0.2430 -0.5331
 5523SOL    HW113292   4.089   4.046   4.170  0.9564 -0.1300  0.7772
 5523SOL    HW213293   4.152   4.177   4.211 -0.3070  1.1816 -1.2878
 5524SOL     OW13294   3.017   3.099   5.636  0.2455  0.4938 -0.1208
 5524SOL    HW113295   3.102   3.086   5.679  0.4879  1.9597 -0.1294
 5524SOL    HW213296   3.029   3.064   5.548  0.2431 -1.0243  0.4391
 5525SOL     OW13297   4.141   1.011   4.711  0.6142  0.3544  0.0432
 5525SOL    HW113298   4.063   0.959   4.693  0.6991  0.2130  0.0754
 5525SOL    HW213299   4.120   1.098   4.679  0.4810  0.2918 -0.0415
 5526SOL     OW13300   4.308   2.382   6.636  0.0289 -0.0025  0.1380
 5526SOL    HW113301   4.384   2.440   6.639 -0.3358  0.4434  2.0377
 5526SOL    HW213302   4.299   2.349   6.725 -1.0222 -1.3760 -0.4353
 5527SOL     OW13303   2.379   2.766   4.120  0.3582  0.1748 -0.0368
 5527SOL    HW113304   2.301   2.800   4.076 -0.2414  1.7517  2.0451
 5527SOL    HW213305   2.353   2.678   4.149 -0.4996  0.4963  0.2101
 5528SOL     OW13306   4.298   1.281   5.382  0.3285 -0.4273  0.0068
 5528SOL    HW113307   4.316   1.373   5.364 -0.7468 -0.5540 -2.0381
 5528SOL    HW213308   4.357   1.258   5.453  2.7519  1.0819 -1.3843
 5529SOL     OW13309   0.283   4.129   6.626  0.0621 -0.5355  0.3174
 5529SOL    HW113310   0.190   4.117   6.648 -0.6277 -0.0010 -2.0411
 5529SOL    HW213311   0.330   4.093   6.701 -2.0336 -1.9729  1.0386
 5530SOL     OW13312   4.298   2.215   4.566 -0.1051  0.7780  0.4683
 5530SOL    HW113313   4.315   2.290   4.509 -0.2413  0.3029 -0.2099
 5530SOL    HW213314   4.349   2.144   4.527 -0.2695  0.4252  0.8911
 5531SOL     OW13315   4.025   2.654   5.323 -0.3341  0.1471 -0.4437
 5531SOL    HW113316   4.113   2.635   5.354  0.2672 -0.0832 -2.1734
 5531SOL    HW213317   4.038   2.704   5.243 -1.8191  1.5820  0.1441
 5532SOL     OW13318   1.313   1.116   3.711  0.0680 -0.7935  0.5165
 5532SOL    HW113319   1.376   1.126   3.782 -0.6662  0.7067  0.9921
 5532SOL    HW213320   1.353   1.162   3.637  1.2220 -3.0601 -0.3805
 5533SOL     OW13321   0.405   3.538   6.828 -0.1902 -0.1384  0.3419
 5533SOL    HW113322   0.332   3.569   6.775 -0.2679 -0.3643  0.3143
 5533SOL    HW213323   0.451   3.617   6.855 -0.1405 -0.0177 -0.0804
 5534SOL     OW13324   0.172   1.537   2.138  0.1591  0.2237  0.1501
 5534SOL    HW113325   0.261   1.504   2.126 -0.5343 -1.3654 -0.9184
 5534SOL    HW213326   0.160   1.540   2.233  1.5309  1.0192  0.3148
 5535SOL     OW13327   2.333   3.016   5.858  0.4448  0.5507 -0.1473
 5535SOL    HW113328   2.402   2.971   5.809 -0.6268 -3.3296  1.5125
 5535SOL    HW213329   2.255   3.009   5.802  0.3228  0.6195  0.0127
 5536SOL     OW13330   0.519   0.287   7.178 -0.0349 -0.1151 -0.0398
 5536SOL    HW113331   0.469   0.247   7.107 -0.8728 -1.1231  1.0829
 5536SOL    HW213332   0.579   0.218   7.207  1.1814  0.6880 -0.5584
 5537SOL     OW13333   0.323   4.094   6.337 -0.1032 -0.9948  0.4192
 5537SOL    HW113334   0.265   4.023   6.308  1.3108 -2.1392  0.2776
 5537SOL    HW213335   0.295   4.113   6.427 -0.3964 -1.8444  0.5119
 5538SOL     OW13336   1.263   2.815   6.899  0.4791  0.1728 -0.0647
 5538SOL    HW113337   1.311   2.874   6.841 -1.2201  0.3147 -1.4457
 5538SOL    HW213338   1.271   2.729   6.858 -2.4230  0.5981 -1.8205
 5539SOL     OW13339   4.115   1.892   6.720 -0.1799  0.2914  0.2393
 5539SOL    HW113340   4.185   1.950   6.691  0.3563 -0.1147  0.6971
 5539SOL    HW213341   4.141   1.865   6.808 -1.3416  0.8041  0.7649
 5540SOL     OW13342   3.759   3.911   5.360 -0.0653 -0.0115 -0.0485
 5540SOL    HW113343   3.694   3.976   5.336 -0.4098 -0.7638 -1.2586
 5540SOL    HW213344   3.710   3.845   5.409  0.1031  0.1980  0.4031
 5541SOL     OW13345   3.595   3.641   6.714  0.0062 -0.1838  0.0052
 5541SOL    HW113346   3.608   3.663   6.806  0.2571  0.9277 -0.2850
 5541SOL    HW213347   3.607   3.546   6.710 -1.1495 -0.4097  1.3092
 5542SOL     OW13348   2.529   1.621   7.370  0.9369 -0.7693 -0.1772
 5542SOL    HW113349   2.479   1.668   7.303 -1.1535 -1.0905  1.0803
 5542SOL    HW213350   2.619   1.622   7.337  0.2465  0.3986 -2.2309
 5543SOL     OW13351   3.219   0.335   5.348  0.5939  0.9035 -0.1585
 5543SOL    HW113352   3.305   0.354   5.386 -0.4840  0.7171  2.6275
 5543SOL    HW213353   3.197   0.248   5.382 -0.2545  0.4814 -1.7227
 5544SOL     OW13354   2.975   4.007   4.880  0.9978 -0.4162  0.0107
 5544SOL    HW113355   2.994   3.925   4.836  0.3440 -0.6840  0.2090
 5544SOL    HW213356   2.981   4.073   4.811  1.9282 -0.5745 -0.0637
 5545SOL     OW13357   2.772   1.900   7.703 -0.1727 -0.0103 -0.6674
 5545SOL    HW113358   2.832   1.975   7.699  0.3214 -0.4390 -1.7422
 5545SOL    HW213359   2.686   1.939   7.716  0.2053  0.6728 -0.0970
 5546SOL     OW13360   2.322   2.875   6.211 -0.0780 -0.4687  0.0037
 5546SOL    HW113361   2.227   2.880   6.204  0.0275  0.3084 -0.9641
 5546SOL    HW213362   2.351   2.843   6.126  0.5384 -0.5502  0.2420
 5547SOL     OW13363   0.290   2.492   6.654 -0.4290  0.4304  0.4161
 5547SOL    HW113364   0.384   2.502   6.667  0.0659  1.1171 -2.8566
 5547SOL    HW213365   0.251   2.568   6.698  0.9799  2.3455 -1.4103
 5548SOL     OW13366   1.565   3.907   7.406 -0.1951 -0.4001  0.1408
 5548SOL    HW113367   1.496   3.968   7.429 -0.9723 -1.5380  0.9179
 5548SOL    HW213368   1.617   3.897   7.486  0.1826 -0.4318 -0.1022
 5549SOL     OW13369   0.238   2.158   7.118  0.0424  0.0462 -0.3263
 5549SOL    HW113370   0.211   2.142   7.028 -0.0049 -1.8472 -0.0357
 5549SOL    HW213371   0.216   2.076   7.164  2.1775  0.0758  0.8918
 5550SOL     OW13372   0.079   3.045   5.064  0.1864 -0.2721 -0.0305
 5550SOL    HW113373   0.055   2.954   5.048  0.1362 -0.1695 -0.5471
 5550SOL    HW213374   0.099   3.049   5.158 -2.6133 -0.1941  0.6333
 5551SOL     OW13375   0.324   2.597   6.956 -0.4553  0.1376  0.5823
 5551SOL    HW113376   0.297   2.527   7.015 -1.3588  0.9026  1.1118
 5551SOL    HW213377   0.252   2.661   6.960  0.2245  0.9717 -0.0733
 5552SOL     OW13378   3.396   2.181   7.377  0.0303 -0.3355  0.3338
 5552SOL    HW113379   3.357   2.147   7.458  2.0683  2.2429  2.5871
 5552SOL    HW213380   3.346   2.260   7.359 -0.6682 -1.0938 -1.2816
 5553SOL     OW13381   3.902   2.768   6.780 -0.2678 -0.2444 -0.0743
 5553SOL    HW113382   3.940   2.852   6.753  0.4561  0.1354  1.9273
 5553SOL    HW213383   3.976   2.721   6.819 -0.5253 -2.0981 -1.7277
 5554SOL     OW13384   3.363   2.235   4.861 -0.3856 -0.0420  0.5217
 5554SOL    HW113385   3.317   2.166   4.910 -1.5925 -0.3151 -0.9179
 5554SOL    HW213386   3.400   2.190   4.786  0.1399  0.6213  0.3765
 5555SOL     OW13387   4.110   2.036   5.330 -0.1695 -0.2097 -0.0792
 5555SOL    HW113388   4.181   2.042   5.395 -0.7504 -1.0557  0.6619
 5555SOL    HW213389   4.155   2.018   5.248  0.4929 -0.5362  0.3396
 5556SOL     OW13390   1.067   2.172   6.389  0.0184  0.5004 -0.0977
 5556SOL    HW113391   1.020   2.235   6.444  0.7202  1.0511 -0.1128
 5556SOL    HW213392   1.096   2.104   6.450 -0.7233  0.1879 -0.0765
 5557SOL     OW13393   2.628   3.201   7.272 -0.3506 -0.1131 -0.0489
 5557SOL    HW113394   2.692   3.168   7.210 -1.0733 -1.6779 -0.0238
 5557SOL    HW213395   2.592   3.280   7.231  2.2232  1.4106  0.3882
 5558SOL     OW13396   3.593   2.890   7.010 -0.4586  0.2271 -0.3631
 5558SOL    HW113397   3.552   2.822   7.062 -0.3073  1.2399  1.1416
 5558SOL    HW213398   3.547   2.887   6.926 -0.7750 -1.3757 -0.1600
 5559SOL     OW13399   4.227   3.866   6.467  0.2482 -0.5028 -0.5073
 5559SOL    HW113400   4.199   3.775   6.459  0.1530 -0.5960  0.7479
 5559SOL    HW213401   4.182   3.898   6.545  1.2693  0.2465 -0.2107
 5560SOL     OW13402   0.777   3.364   3.449  0.3362  0.2925  0.3724
 5560SOL    HW113403   0.730   3.295   3.403 -0.6837 -0.3437  2.2840
 5560SOL    HW213404   0.708   3.424   3.479  0.8418  0.0851  2.0289
 5561SOL     OW13405   0.943   0.529   7.267 -0.4423 -0.6997  0.0539
 5561SOL    HW113406   0.872   0.590   7.288 -0.7195 -1.6805  2.2495
 5561SOL    HW213407   1.023   0.581   7.278 -0.7004 -0.5458  1.3451
 5562SOL     OW13408   4.175   2.062   7.041  0.0369  0.2405  0.7207
 5562SOL    HW113409   4.265   2.079   7.015 -0.7527  1.0551 -1.7521
 5562SOL    HW213410   4.179   1.981   7.092  2.1875  0.5053  1.0367
 5563SOL     OW13411   0.099   0.084   6.924  0.4068  0.4415  0.1556
 5563SOL    HW113412   0.045   0.032   6.983 -0.8795 -0.2259 -1.5303
 5563SOL    HW213413   0.037   0.147   6.885  1.4392  1.5782  0.2806
 5564SOL     OW13414   1.331   2.785   5.637  0.6388 -0.3950  0.0203
 5564SOL    HW113415   1.335   2.831   5.553 -1.7670 -0.5947 -0.2628
 5564SOL    HW213416   1.390   2.710   5.627 -0.2612 -0.8984 -1.8216
 5565SOL     OW13417   3.232   2.439   6.863  0.0406  0.1495 -0.5066
 5565SOL    HW113418   3.300   2.438   6.796  1.9714 -0.9691  1.3396
 5565SOL    HW213419   3.151   2.418   6.816  0.5858  3.0305 -3.0555
 5566SOL     OW13420   0.972   0.531   5.650 -0.1515  0.6940  0.3663
 5566SOL    HW113421   0.948   0.455   5.597 -2.4615  0.1133  2.0765
 5566SOL    HW213422   1.066   0.520   5.667 -0.1425 -1.0111 -0.5792
 5567SOL     OW13423   0.107   2.621   6.355  0.3367  0.1690  0.2007
 5567SOL    HW113424   0.018   2.591   6.374 -0.0073  1.4091  0.7000
 5567SOL    HW213425   0.126   2.685   6.424  0.9589  1.1805 -0.8639
 5568SOL     OW13426   3.841   3.454   6.074  0.6575  0.1361 -0.2620
 5568SOL    HW113427   3.858   3.547   6.093 -0.4261  0.1824  0.5959
 5568SOL    HW213428   3.878   3.407   6.149  0.1624 -0.0155 -0.1038
 5569SOL     OW13429   3.403   1.497   7.243 -0.0090 -0.3749 -0.4009
 5569SOL    HW113430   3.492   1.472   7.221  0.6000  0.1140  1.3163
 5569SOL    HW213431   3.369   1.539   7.164  1.8900  0.9587 -0.5590
 5570SOL     OW13432   3.642   3.917   6.107  0.3019  0.3313 -0.5431
 5570SOL    HW113433   3.596   3.901   6.190  0.2584  0.3758 -0.5588
 5570SOL    HW213434   3.602   3.996   6.072  1.1884  1.0550  0.0219
 5571SOL     OW13435   3.265   1.093   5.905 -0.1761  0.1998 -0.5958
 5571SOL    HW113436   3.194   1.133   5.854  1.6454  1.7665 -2.0464
 5571SOL    HW213437   3.332   1.072   5.840  1.5812  0.7887  0.9415
 5572SOL     OW13438   3.133   0.893   6.913 -0.3778 -0.1939 -0.2238
 5572SOL    HW113439   3.163   0.875   6.824  1.5477  1.1596  0.1003
 5572SOL    HW213440   3.078   0.971   6.905 -0.1874 -0.0600 -0.2325
 5573SOL     OW13441   3.351   2.908   5.368 -0.5113  0.2632 -0.2973
 5573SOL    HW113442   3.299   2.861   5.303  1.0178 -1.2719 -0.4659
 5573SOL    HW213443   3.307   2.889   5.451 -1.8217  1.3189 -0.7128
 5574SOL     OW13444   2.836   1.002   6.593  0.1457 -0.3620 -0.3548
 5574SOL    HW113445   2.900   1.068   6.567  0.8179 -0.7987  0.1439
 5574SOL    HW213446   2.842   0.935   6.525 -0.9180  0.3246 -1.1456
 5575SOL     OW13447   3.227   3.161   7.470 -0.1608 -0.3199 -0.0651
 5575SOL    HW113448   3.269   3.084   7.431  1.7046  0.2692  0.6622
 5575SOL    HW213449   3.274   3.175   7.552 -1.3574  0.8083  0.4657
 5576SOL     OW13450   0.558   2.743   6.892 -0.1736  0.4480  0.0408
 5576SOL    HW113451   0.591   2.672   6.838  2.3937  0.1444  1.8698
 5576SOL    HW213452   0.478   2.708   6.932 -1.0604  0.0254 -2.0021
 5577SOL     OW13453   1.219   0.485   7.438 -0.4925 -0.1511  0.1353
 5577SOL    HW113454   1.132   0.524   7.430  0.1400  0.9184 -2.6056
 5577SOL    HW213455   1.203   0.396   7.471 -2.6543 -0.0695 -0.5518
 5578SOL     OW13456   1.813   1.797   6.339  0.0270  0.1899  0.1455
 5578SOL    HW113457   1.897   1.762   6.308  0.0207  0.0288  0.3139
 5578SOL    HW213458   1.782   1.851   6.266  1.1137  1.6909  0.7387
 5579SOL     OW13459   4.164   3.488   5.821  0.5963 -0.4908  0.2896
 5579SOL    HW113460   4.149   3.582   5.811  1.2990 -0.4621 -0.5291
 5579SOL    HW213461   4.082   3.455   5.859 -0.0696  0.2726 -0.4512
 5580SOL     OW13462   3.898   3.487   5.183 -0.1632 -0.0561  0.6745
 5580SOL    HW113463   3.920   3.515   5.272  1.7518 -1.1863  0.6167
 5580SOL    HW213464   3.976   3.441   5.153 -1.5533 -1.5744 -0.8177
 5581SOL     OW13465   3.469   2.898   7.641 -0.8100  0.5607  0.7214
 5581SOL    HW113466   3.503   2.986   7.658 -0.3554  0.2668  1.3591
 5581SOL    HW213467   3.505   2.844   7.711 -2.8659  0.2986  1.6523
 5582SOL     OW13468   3.621   3.776   4.095  0.8039  0.1999  0.2223
 5582SOL    HW113469   3.557   3.708   4.078 -0.7104  1.4555  0.6438
 5582SOL    HW213470   3.703   3.729   4.110 -0.7098 -1.7421  3.2898
 5583SOL     OW13471   3.755   0.159   7.365 -0.4829 -0.1608 -0.0800
 5583SOL    HW113472   3.719   0.212   7.294  0.1171 -0.7843 -0.8730
 5583SOL    HW213473   3.698   0.176   7.440  0.2185  2.3431 -0.0135
 5584SOL     OW13474   0.692   3.392   7.719 -0.6361  0.2801 -0.1886
 5584SOL    HW113475   0.665   3.480   7.744  0.4221  0.8978 -1.1252
 5584SOL    HW213476   0.784   3.400   7.696 -1.1821 -0.4140 -3.0688
 5585SOL     OW13477   1.941   3.605   7.353 -0.0197 -0.2593  0.7738
 5585SOL    HW113478   1.903   3.666   7.416  0.5062 -0.8259  1.6655
 5585SOL    HW213479   1.990   3.661   7.292  2.0220  0.1351  2.6625
 5586SOL     OW13480   3.132   3.449   6.323 -0.4860 -0.0805 -0.8376
 5586SOL    HW113481   3.079   3.508   6.377  0.4022 -1.3231  1.5263
 5586SOL    HW213482   3.070   3.410   6.262 -2.2622 -1.1070  1.4930
 5587SOL     OW13483   3.957   2.478   5.713 -0.6240 -0.2473  0.2355
 5587SOL    HW113484   3.988   2.481   5.622 -2.0922 -0.4820 -0.2938
 5587SOL    HW213485   3.985   2.392   5.745 -0.2718 -0.2431 -0.0536
 5588SOL     OW13486   3.879   2.213   7.638 -0.2117 -0.2240 -0.2078
 5588SOL    HW113487   3.857   2.138   7.694  0.1720  0.1788  0.4988
 5588SOL    HW213488   3.975   2.217   7.640 -0.1557 -0.6520 -1.5058
 5589SOL     OW13489   0.688   2.547   7.211 -0.0945  0.1506 -0.7731
 5589SOL    HW113490   0.657   2.626   7.167 -0.0592 -0.1943 -1.4377
 5589SOL    HW213491   0.778   2.535   7.179  0.2517  0.3904  0.0920
 5590SOL     OW13492   4.145   2.152   7.702 -0.2712 -0.5772  0.8858
 5590SOL    HW113493   4.220   2.211   7.702 -0.6884 -0.0461  1.5339
 5590SOL    HW213494   4.181   2.068   7.672 -0.1467  0.5597 -2.6223
 5591SOL     OW13495   4.067   2.778   7.655  0.3962  0.1239  0.3220
 5591SOL    HW113496   4.096   2.698   7.699 -0.2394 -0.2116  0.1431
 5591SOL    HW213497   4.123   2.846   7.692  0.1489 -0.2100  1.3728
 5592SOL     OW13498   3.858   1.911   7.689  0.2785  1.3056  0.4348
 5592SOL    HW113499   3.925   1.945   7.630 -0.2537  1.3285 -0.1783
 5592SOL    HW213500   3.881   1.818   7.701 -0.1605  1.0395 -0.6355
 5593SOL     OW13501   0.726   1.625   7.708 -0.1718 -0.6202  0.1809
 5593SOL    HW113502   0.797   1.565   7.730  1.4304  1.9380  2.6488
 5593SOL    HW213503   0.768   1.711   7.702 -2.8780  0.8620  0.7867
 5594SOL     OW13504   3.062   3.619   7.713  0.3667 -0.9935  0.0104
 5594SOL    HW113505   3.125   3.656   7.775  1.0548 -1.2870 -0.5110
 5594SOL    HW213506   3.113   3.597   7.636 -0.4975 -0.5737 -0.6975
 5595SOL     OW13507   4.117   2.512   7.709 -0.0164 -0.0579 -0.1817
 5595SOL    HW113508   4.181   2.532   7.641  0.5571  0.3533  0.4651
 5595SOL    HW213509   4.143   2.425   7.740  0.5704  0.3392  0.4554
 5596SOL     OW13510   4.166   1.902   7.619 -0.3568  0.0636 -0.6378
 5596SOL    HW113511   4.174   1.834   7.553  1.0170 -0.9309  0.5045
 5596SOL    HW213512   4.134   1.857   7.697  2.2433  0.2816  0.6775
 5597SOL     OW13513   3.647   3.101   7.652  0.2850  0.6590 -0.7280
 5597SOL    HW113514   3.712   3.031   7.650 -0.2301  0.0491  1.3740
 5597SOL    HW213515   3.699   3.182   7.643  1.2608  0.1447  0.0498
 5598SOL     OW13516   4.241   3.666   6.943  0.2750  0.2583  0.2547
 5598SOL    HW113517   4.240   3.720   6.864  1.4138 -1.1759 -0.8050
 5598SOL    HW213518   4.317   3.697   6.992  1.0434 -0.4719 -0.4474
 5599SOL     OW13519   3.995   3.016   6.739  0.2020 -0.6537 -0.3767
 5599SOL    HW113520   4.026   3.107   6.740 -1.5640 -0.0113 -0.2249
 5599SOL    HW213521   3.914   3.018   6.790 -0.3344 -2.1432 -1.1254
 5600SOL     OW13522   4.200   3.962   0.950 -0.1180  0.5580  0.0690
 5600SOL    HW113523   4.268   3.895   0.959 -0.6252  0.0799  0.4201
 5600SOL    HW213524   4.244   4.043   0.974  0.7945  0.5332 -1.4009
 5601SOL     OW13525   3.840   3.868   0.705  0.3926  0.6264  0.0211
 5601SOL    HW113526   3.936   3.863   0.699  0.4193  1.6284 -0.4749
 5601SOL    HW213527   3.812   3.776   0.709  1.3323  0.3040 -0.4633
 5602SOL     OW13528   3.913   4.222   0.646 -1.0176  0.4257  0.3023
 5602SOL    HW113529   3.823   4.190   0.643  0.0192 -2.7493 -0.2926
 5602SOL    HW213530   3.954   4.173   0.718  0.5668  0.8476 -0.2661
 5603SOL     OW13531   3.124   0.349   1.614  0.0294 -0.0796  0.0011
 5603SOL    HW113532   3.197   0.407   1.635 -0.6152  0.4300  0.9509
 5603SOL    HW213533   3.057   0.373   1.678 -1.4996  0.4481 -1.7178
 5604SOL     OW13534   0.506   4.019   0.679 -0.1775 -0.6001  0.1409
 5604SOL    HW113535   0.562   4.014   0.757  0.6098 -0.5968 -0.4159
 5604SOL    HW213536   0.551   3.967   0.613 -0.5559 -0.1406 -0.4905
 5605SOL     OW13537   3.813   0.344   0.977  0.1312  0.0247  0.1472
 5605SOL    HW113538   3.737   0.398   0.999 -0.3132  0.2672 -1.8407
 5605SOL    HW213539   3.778   0.256   0.969  0.7052 -0.4878  2.5288
 5606SOL     OW13540   0.653   1.414   1.594  0.2414  0.1766  0.2585
 5606SOL    HW113541   0.606   1.414   1.677  1.8731 -0.6506  1.2453
 5606SOL    HW213542   0.588   1.385   1.529 -0.9023  0.2477  1.3406
 5607SOL     OW13543   2.874   3.787   2.089 -0.1720 -0.2823  0.6020
 5607SOL    HW113544   2.887   3.880   2.111 -0.5366  0.3158 -1.4171
 5607SOL    HW213545   2.808   3.756   2.151 -0.8206  1.1138  0.6496
 5608SOL     OW13546   3.325   0.177   1.525 -0.5007 -0.3262  0.6221
 5608SOL    HW113547   3.294   0.242   1.587 -0.9956  0.3694 -0.3242
 5608SOL    HW213548   3.273   0.099   1.544 -1.1868  0.1150  0.5975
 5609SOL     OW13549   0.625   0.020   1.740 -0.1883  0.2216 -0.2102
 5609SOL    HW113550   0.661   0.015   1.828 -0.1133  0.4536 -0.2258
 5609SOL    HW213551   0.546   0.074   1.750  0.1130  0.6989 -0.3745
 5610SOL     OW13552   1.029   0.351   2.000 -0.2955 -0.4786  0.3233
 5610SOL    HW113553   1.124   0.340   2.005 -0.2750 -1.0171 -0.9074
 5610SOL    HW213554   0.993   0.281   2.054 -0.0487 -3.5816 -3.1548
 5611SOL     OW13555   2.897   3.796   1.697  0.1174  0.4813  0.1087
 5611SOL    HW113556   2.919   3.749   1.777  0.9268  0.1124 -0.3275
 5611SOL    HW213557   2.969   3.777   1.636 -0.4355  0.8308 -0.6764
 5612SOL     OW13558   1.277   0.328   1.532 -0.0601 -0.2383 -0.2885
 5612SOL    HW113559   1.248   0.249   1.578 -1.1918 -0.0066 -0.5786
 5612SOL    HW213560   1.279   0.301   1.440  1.1604 -0.3927 -0.2300
 5613SOL     OW13561   0.010   0.200   0.636 -0.0039  0.3340  0.3648
 5613SOL    HW113562   0.028   0.293   0.641 -0.6866  0.4409  1.0798
 5613SOL    HW213563  -0.086   0.194   0.640  0.0706 -0.4386  1.2883
 5614SOL     OW13564   0.413   3.934   1.728 -0.4707 -0.2607 -0.4144
 5614SOL    HW113565   0.440   3.935   1.636 -0.9649  0.5947 -0.5588
 5614SOL    HW213566   0.476   3.991   1.772  0.5158 -1.6149  0.0247
 5615SOL     OW13567   3.762   3.245   2.509 -0.6383  1.3088  0.1308
 5615SOL    HW113568   3.712   3.287   2.579 -1.1900  3.9585 -1.7214
 5615SOL    HW213569   3.851   3.238   2.544 -1.5711 -0.9254  2.4154
 5616SOL     OW13570   3.998   3.535   2.770  0.0588 -0.3310 -0.0121
 5616SOL    HW113571   4.067   3.599   2.787 -0.4959  0.7198 -1.4635
 5616SOL    HW213572   3.921   3.571   2.814 -0.6721  0.9340 -2.1903
 5617SOL     OW13573   4.030   0.431   0.689 -0.1402 -0.0125  0.3161
 5617SOL    HW113574   4.025   0.336   0.696  0.4260 -0.0212  0.6774
 5617SOL    HW213575   4.025   0.463   0.779 -2.4178  0.4354  0.0853
 5618SOL     OW13576   0.967   3.433   3.956  0.0529  0.7646  0.5134
 5618SOL    HW113577   1.010   3.519   3.959 -0.4578  1.1251 -1.2456
 5618SOL    HW213578   0.949   3.419   3.863 -0.0484 -1.1771  0.7923
 5619SOL     OW13579   1.957   3.489   1.478 -0.0369  0.4940 -0.3100
 5619SOL    HW113580   1.908   3.444   1.410 -2.3524 -0.8426  2.0685
 5619SOL    HW213581   1.897   3.492   1.553  2.7015  0.9701  2.0222
 5620SOL     OW13582   1.107   1.190   2.557  0.0105 -0.3409 -0.1715
 5620SOL    HW113583   1.159   1.268   2.577 -0.3415 -0.6091  2.0417
 5620SOL    HW213584   1.135   1.125   2.621 -2.6443 -0.6573  0.7756
 5621SOL     OW13585   3.282   3.860   2.462  0.8468 -0.4457 -0.3783
 5621SOL    HW113586   3.273   3.909   2.380 -1.1981  0.4765  0.3108
 5621SOL    HW213587   3.267   3.925   2.530 -1.6458 -1.8714  0.5947
 5622SOL     OW13588   3.176   3.704   2.968  0.4677  0.0878 -0.0677
 5622SOL    HW113589   3.224   3.660   3.039 -0.3197 -1.4166 -0.4186
 5622SOL    HW213590   3.243   3.728   2.905  0.9878 -0.1147  0.3985
 5623SOL     OW13591   3.663   4.149   4.316 -0.0670 -0.0109 -0.2266
 5623SOL    HW113592   3.731   4.204   4.356 -1.2864  0.7853  0.8216
 5623SOL    HW213593   3.628   4.203   4.245  2.0869 -1.4171 -2.5108
 5624SOL     OW13594   4.020   0.616   3.943  0.6793 -0.1228  0.8944
 5624SOL    HW113595   4.016   0.523   3.964  1.3801 -0.1024  1.1358
 5624SOL    HW213596   4.105   0.627   3.900  2.1245  0.9656  3.7570
 5625SOL     OW13597   4.161   2.559   6.488 -0.8054 -0.2351 -0.7158
 5625SOL    HW113598   4.074   2.527   6.461 -0.1727 -1.0106 -1.9512
 5625SOL    HW213599   4.202   2.484   6.531 -0.6521  0.0411 -0.3832
 5626SOL     OW13600   0.324   0.108   3.535 -0.8763 -0.0695  1.3551
 5626SOL    HW113601   0.307   0.061   3.453  0.0246 -0.6757  1.4977
 5626SOL    HW213602   0.250   0.168   3.545 -1.1891 -0.2693  0.2986
 5627SOL     OW13603   3.501   0.076   2.347  0.8944 -0.0948 -0.4471
 5627SOL    HW113604   3.420   0.028   2.333  0.8817  0.3367 -2.0795
 5627SOL    HW213605   3.569   0.020   2.311  1.1362  0.2192 -0.4862
 5628SOL     OW13606   0.667   3.964   0.929  0.5234 -0.2315  0.5653
 5628SOL    HW113607   0.741   3.902   0.935  1.5639  0.8393 -0.7138
 5628SOL    HW213608   0.696   4.040   0.979  0.3003  0.2118  0.0230
 5629SOL     OW13609   3.332   0.237   1.941 -0.5965 -0.5060  0.3084
 5629SOL    HW113610   3.313   0.169   1.876 -1.0395  0.4563 -0.6096
 5629SOL    HW213611   3.422   0.221   1.968 -0.1717 -0.5456 -1.0482
 5630SOL     OW13612   4.271   2.573   3.920  0.2716  0.0644 -0.1388
 5630SOL    HW113613   4.253   2.663   3.894 -1.5198 -0.0120  0.6531
 5630SOL    HW213614   4.255   2.572   4.014 -1.6524 -1.4717 -0.4280
 5631SOL     OW13615   0.174   0.880   5.951  0.5527 -0.1634 -0.0355
 5631SOL    HW113616   0.113   0.918   6.014  0.0407 -0.8898 -0.0931
 5631SOL    HW213617   0.207   0.956   5.901  1.7203  0.5638  1.7238
 5632SOL     OW13618   3.046   0.627   4.755 -0.0401 -0.1192 -0.0760
 5632SOL    HW113619   2.965   0.625   4.806  0.0190 -2.5237  0.0487
 5632SOL    HW213620   3.047   0.543   4.710  1.7941  0.3920 -1.0554
 5633SOL     OW13621   1.356   0.661   5.084 -0.9542 -0.5147  0.2670
 5633SOL    HW113622   1.389   0.748   5.105  0.8709 -0.9543 -0.6507
 5633SOL    HW213623   1.296   0.640   5.156 -2.1421  1.8353  0.0507
 5634SOL     OW13624   0.074   3.352   5.749 -0.3251  0.2799  0.5050
 5634SOL    HW113625   0.081   3.321   5.658  0.3181  3.8630 -0.8510
 5634SOL    HW213626  -0.019   3.370   5.761 -0.2268  1.3259 -0.1089
 5635SOL     OW13627   3.298   3.862   5.124  0.3090 -0.5988  0.6656
 5635SOL    HW113628   3.288   3.955   5.103  0.0400 -0.4843  1.2649
 5635SOL    HW213629   3.352   3.827   5.054 -0.2101 -0.1468  0.0202
 5636SOL     OW13630   4.149   1.507   4.610  0.5264  0.3342  0.0227
 5636SOL    HW113631   4.061   1.500   4.572  0.2937 -0.7551  0.6995
 5636SOL    HW213632   4.204   1.535   4.538 -0.1650 -0.2035 -0.7387
 5637SOL     OW13633   2.422   0.132   4.742 -0.2248 -0.5059 -0.3376
 5637SOL    HW113634   2.360   0.192   4.785 -0.4031 -1.0825  0.2281
 5637SOL    HW213635   2.489   0.116   4.808  2.2545  2.4669 -1.8736
 5638SOL     OW13636   1.114   2.329   3.931 -0.4160 -0.0982  0.4125
 5638SOL    HW113637   1.089   2.238   3.917 -1.6440  0.4616 -1.2762
 5638SOL    HW213638   1.193   2.340   3.879  1.0925 -0.7453  2.4285
 5639SOL     OW13639   2.709   2.600   3.292  0.4988  0.0806  0.3995
 5639SOL    HW113640   2.665   2.668   3.241  0.0128  0.0730  0.7903
 5639SOL    HW213641   2.802   2.611   3.272  0.7598  2.5953  2.4121
 5640SOL     OW13642   3.356   0.237   3.994 -0.1756  0.1705 -0.3072
 5640SOL    HW113643   3.444   0.210   3.967  0.1790  1.3630 -0.4308
 5640SOL    HW213644   3.358   0.333   3.987 -1.1256  0.2914  0.7866
 5641SOL     OW13645   4.004   2.818   2.662  0.3086  0.6235 -0.6810
 5641SOL    HW113646   3.950   2.862   2.597  0.0644  0.1682 -0.7923
 5641SOL    HW213647   4.009   2.727   2.631 -0.2707  0.2705  0.2248
 5642SOL     OW13648   0.289   0.125   4.816  0.3585  0.0564  0.1134
 5642SOL    HW113649   0.243   0.186   4.872  0.0923  0.7205 -0.8032
 5642SOL    HW213650   0.382   0.147   4.827  0.2688  0.5785 -0.1476
 5643SOL     OW13651   3.168   3.557   4.950 -0.5875  0.4591  0.0522
 5643SOL    HW113652   3.158   3.462   4.944  1.1147  0.1235  1.5841
 5643SOL    HW213653   3.150   3.589   4.861 -1.7158 -1.2032 -0.3712
 5644SOL     OW13654   3.169   0.744   6.093  0.8619 -0.2723 -0.2845
 5644SOL    HW113655   3.120   0.663   6.106  0.3524  0.3311  2.0268
 5644SOL    HW213656   3.254   0.728   6.133  0.3811  0.6401  1.1846
 5645SOL     OW13657   4.128   3.587   4.387  0.7338  0.3677  0.4383
 5645SOL    HW113658   4.180   3.623   4.315 -0.9304  0.7122 -0.6272
 5645SOL    HW213659   4.093   3.505   4.352 -1.4585  1.3493  0.1959
 5646SOL     OW13660   0.855   3.191   5.427 -0.0601 -0.1331 -0.6755
 5646SOL    HW113661   0.780   3.157   5.377 -1.1976  1.6700 -0.2857
 5646SOL    HW213662   0.899   3.250   5.367 -1.4588  2.0805  0.3325
 5647SOL     OW13663   0.489   1.870   4.227  0.0924 -0.3584  0.0159
 5647SOL    HW113664   0.415   1.925   4.202 -0.5816 -1.1842  0.1753
 5647SOL    HW213665   0.544   1.928   4.280 -0.1136  0.4414 -0.6193
 5648SOL     OW13666   1.288   3.430   2.491  0.1467  0.2841  0.2360
 5648SOL    HW113667   1.291   3.521   2.522  3.1191 -0.3047  2.0812
 5648SOL    HW213668   1.327   3.434   2.404  0.7108  0.7393  0.4994
 5649SOL     OW13669   3.510   0.200   5.149  0.2289 -0.0258  0.1238
 5649SOL    HW113670   3.545   0.162   5.229  1.3687  1.5759  0.4346
 5649SOL    HW213671   3.495   0.292   5.170 -0.6602  0.1501 -1.1347
 5650SOL     OW13672   0.846   4.042   5.859 -0.3441 -0.0642 -1.1062
 5650SOL    HW113673   0.931   4.060   5.818 -0.6665  1.3918 -1.1835
 5650SOL    HW213674   0.825   4.122   5.907 -0.6873 -1.1762  0.6910
 5651SOL     OW13675   3.582   3.619   6.024 -0.1193  0.5664 -0.4652
 5651SOL    HW113676   3.663   3.595   6.070 -0.8882  0.7631  1.0451
 5651SOL    HW213677   3.559   3.705   6.059 -1.9032 -0.2319  0.4792
 5652SOL     OW13678   2.661   1.307   6.435  0.5517  0.0213 -0.2189
 5652SOL    HW113679   2.589   1.276   6.490  1.1805 -0.5252  0.3294
 5652SOL    HW213680   2.639   1.397   6.415 -1.1554 -0.6564 -1.5623
 5653SOL     OW13681   0.965   1.750   5.826 -0.5257 -0.2853 -0.1491
 5653SOL    HW113682   0.970   1.824   5.885  2.8259 -0.0908 -0.5137
 5653SOL    HW213683   1.023   1.772   5.753  0.8786 -3.3208 -0.1284
 5654SOL     OW13684   1.195   3.861   6.856  0.0023  0.1247 -0.3520
 5654SOL    HW113685   1.228   3.949   6.842  1.4932 -0.3445 -0.0325
 5654SOL    HW213686   1.123   3.851   6.793 -0.1587  1.5269 -0.4165
 5655SOL     OW13687   3.830   1.294   7.451 -0.2626  0.1255  0.1422
 5655SOL    HW113688   3.803   1.202   7.452  1.8738 -0.5659  0.7899
 5655SOL    HW213689   3.754   1.342   7.483 -1.0031 -1.5510  1.0313
 5656SOL     OW13690   3.680   4.213   7.336  0.2723  0.0584 -0.0665
 5656SOL    HW113691   3.595   4.199   7.294 -0.1697 -0.1807  0.8775
 5656SOL    HW213692   3.690   4.308   7.339  0.4400  0.0774 -0.9440
 5657SOL     OW13693   0.163   3.745   7.079 -0.6557 -0.3378 -0.3210
 5657SOL    HW113694   0.182   3.833   7.112 -0.7329 -1.0995  1.8778
 5657SOL    HW213695   0.242   3.695   7.099 -1.4512 -1.2935  0.5057
 5658SOL     OW13696   3.859   4.279   5.243 -0.2035  0.0512 -0.1114
 5658SOL    HW113697   3.900   4.333   5.310  1.4585 -0.0880 -0.9647
 5658SOL    HW213698   3.864   4.190   5.277 -0.5762  0.1266  0.1497
 5659SOL     OW13699   3.991   0.167   7.713 -0.1395 -0.4208  0.0191
 5659SOL    HW113700   3.918   0.110   7.689 -0.0169  0.0315 -1.4775
 5659SOL    HW213701   3.951   0.254   7.723  0.2959  0.0124 -1.6928
 5660SOL     OW13702   2.168   4.065   6.989 -0.0301  0.1586  0.8221
 5660SOL    HW113703   2.158   3.969   6.989  0.2179  0.1203 -0.4864
 5660SOL    HW213704   2.262   4.079   6.981  0.0675  0.5344  2.3580
 5661SOL     OW13705   0.512   2.537   7.435 -0.0444  0.6456  0.4259
 5661SOL    HW113706   0.564   2.611   7.465 -0.8853  1.1172  0.7675
 5661SOL    HW213707   0.552   2.511   7.352  1.2839  0.3976  1.1317
 5662SOL     OW13708   4.168   3.991   7.449 -0.9611  0.2284  0.2857
 5662SOL    HW113709   4.189   4.073   7.495  0.4083  0.5104 -0.7851
 5662SOL    HW213710   4.076   3.976   7.470 -0.9058  1.3587  1.5400
 5663SOL     OW13711   3.956   0.298   7.037  0.2114  0.3672 -0.1520
 5663SOL    HW113712   3.946   0.347   6.955  1.2520  0.1840 -0.4027
 5663SOL    HW213713   3.940   0.207   7.013 -1.4750  0.5235  0.2650
 5664SOL     OW13714   3.895   3.734   7.167  0.2043  0.2712 -0.1315
 5664SOL    HW113715   3.851   3.727   7.251 -0.6985  2.0372 -0.4035
 5664SOL    HW213716   3.964   3.667   7.169 -0.8159 -0.7754  1.3496
 5665SOL     OW13717   2.813   3.455   7.703 -0.4389 -0.1794 -0.1033
 5665SOL    HW113718   2.887   3.517   7.702  0.2610 -1.0006 -1.2584
 5665SOL    HW213719   2.809   3.421   7.614 -2.0139 -0.4149  0.0325
 5666SOL     OW13720   0.076   2.746   6.948 -0.0474  0.3153  0.0324
 5666SOL    HW113721   0.068   2.842   6.945 -1.1764  0.3104  1.6781
 5666SOL    HW213722   0.034   2.716   6.868 -0.4524  1.1714 -0.0893
 5667SOL     OW13723   1.708   0.782   6.762 -0.1657  0.0105  0.1489
 5667SOL    HW113724   1.674   0.803   6.849  0.9918  1.3936  0.3195
 5667SOL    HW213725   1.791   0.829   6.757 -0.0247 -0.3396 -1.5769
 5668SOL     OW13726   0.734   2.877   5.947 -0.0471  0.1982  0.8217
 5668SOL    HW113727   0.810   2.935   5.934  0.4900 -0.8600 -1.0803
 5668SOL    HW213728   0.663   2.921   5.901  0.0471 -0.0125  0.4687
 5669SOL     OW13729   1.281   0.906   6.522  0.4412 -0.1511  0.0481
 5669SOL    HW113730   1.250   0.850   6.451  0.6394 -1.5939  1.0601
 5669SOL    HW213731   1.225   0.984   6.517  0.3060 -0.3171 -1.5258
 5670SOL     OW13732   2.712   3.218   4.417 -0.5102  0.7792 -0.1847
 5670SOL    HW113733   2.683   3.128   4.430  0.4076  0.5794  0.5442
 5670SOL    HW213734   2.789   3.228   4.474 -1.6138  2.5428  1.1242
 5671SOL     OW13735   3.713   3.652   6.974 -0.4551 -0.2307  0.5510
 5671SOL    HW113736   3.719   3.565   7.013 -2.2114 -0.1413  1.1355
 5671SOL    HW213737   3.777   3.705   7.021  0.8942 -1.2565 -0.0540
 5672SOL     OW13738   0.294   3.858   7.687 -0.9303 -0.5027  0.5048
 5672SOL    HW113739   0.244   3.935   7.714 -0.5618 -0.4640  1.1082
 5672SOL    HW213740   0.381   3.892   7.666 -1.9272 -0.0483 -3.6809
 5673SOL     OW13741   3.268   3.708   6.335 -0.2733  0.1081 -0.1322
 5673SOL    HW113742   3.299   3.723   6.425  0.9721 -2.4804 -0.0398
 5673SOL    HW213743   3.268   3.613   6.325 -2.1640  0.2571 -2.3151
 5674SOL     OW13744   1.073   4.196   7.678  0.2701 -0.1992  0.2255
 5674SOL    HW113745   1.033   4.121   7.721 -0.1981  0.7642  1.5466
 5674SOL    HW213746   1.167   4.182   7.686  0.2284 -1.5002 -1.1365
 5675SOL     OW13747   3.504   0.019   7.663 -0.1609 -0.1307 -0.2283
 5675SOL    HW113748   3.421   0.028   7.616 -0.4311 -0.3332  0.2045
 5675SOL    HW213749   3.529   0.109   7.685  0.4989  0.0619 -1.6478
   4.31777   4.31777   8.50000
